# vtk DataFile Version 3.0
vtk output
ASCII
DATASET RECTILINEAR_GRID
FIELD FieldData 2
base_index 1 3 int
0 0 0
avtOriginalBounds 1 6 double
-10 10 -10 10 -10 10
DIMENSIONS 50 50 50
X_COORDINATES 50 float
-10 -9.59184 -9.18367 -8.77551 -8.36735 -7.95918 -7.55102 -7.14286 -6.73469
-6.32653 -5.91837 -5.5102 -5.10204 -4.69388 -4.28571 -3.87755 -3.46939 -3.06122
-2.65306 -2.2449 -1.83673 -1.42857 -1.02041 -0.612245 -0.204082 0.204082 0.612245
1.02041 1.42857 1.83673 2.2449 2.65306 3.06122 3.46939 3.87755 4.28572
4.69388 5.10204 5.5102 5.91837 6.32653 6.73469 7.14286 7.55102 7.95918
8.36735 8.77551 9.18367 9.59184 10
Y_COORDINATES 50 float
-10 -9.59184 -9.18367 -8.77551 -8.36735 -7.95918 -7.55102 -7.14286 -6.73469
-6.32653 -5.91837 -5.5102 -5.10204 -4.69388 -4.28571 -3.87755 -3.46939 -3.06122
-2.65306 -2.2449 -1.83673 -1.42857 -1.02041 -0.612245 -0.204082 0.204082 0.612245
1.02041 1.42857 1.83673 2.2449 2.65306 3.06122 3.46939 3.87755 4.28572
4.69388 5.10204 5.5102 5.91837 6.32653 6.73469 7.14286 7.55102 7.95918
8.36735 8.77551 9.18367 9.59184 10
Z_COORDINATES 50 float
-10 -9.59184 -9.18367 -8.77551 -8.36735 -7.95918 -7.55102 -7.14286 -6.73469
-6.32653 -5.91837 -5.5102 -5.10204 -4.69388 -4.28571 -3.87755 -3.46939 -3.06122
-2.65306 -2.2449 -1.83673 -1.42857 -1.02041 -0.612245 -0.204082 0.204082 0.612245
1.02041 1.42857 1.83673 2.2449 2.65306 3.06122 3.46939 3.87755 4.28572
4.69388 5.10204 5.5102 5.91837 6.32653 6.73469 7.14286 7.55102 7.95918
8.36735 8.77551 9.18367 9.59184 10
CELL_DATA 117649
POINT_DATA 125000
SCALARS temp float
LOOKUP_TABLE default
5.83895 5.71336 5.58034 5.43948 5.29038 5.13288 4.96783 4.79895 4.63455
4.48329 4.34366 4.20535 4.06053 3.90673 3.74427 3.57421 3.39771 3.21583
3.02959 2.83999 2.64804 2.45473 2.26102 2.41548 2.58603 2.75485 2.92264
3.09014 3.2581 3.42716 3.59786 3.77052 3.94527 4.12205 4.30061 4.48051
4.66117 4.84188 5.02178 5.19986 5.37501 5.546 5.71151 5.87028 6.02113
6.16312 6.29563 6.41835 6.53137 6.63503 5.94081 5.81558 5.68271 5.54186
5.39272 5.23526 5.07051 4.90211 4.73755 4.58425 4.44082 4.29833 4.14961
3.99219 3.82613 3.65233 3.47181 3.2856 3.09469 2.90013 2.70298 2.50436
2.30534 2.46118 2.63313 2.80308 2.97186 3.14034 3.3094 3.47983 3.65225
3.82707 4.00449 4.18449 4.36682 4.55104 4.73654 4.92255 5.10811 5.29208
5.47317 5.64988 5.82063 5.98386 6.13813 6.28233 6.41576 6.5382 6.64987
6.75134 6.04619 5.92181 5.78974 5.64978 5.50186 5.34631 5.18442 5.01941
4.8567 4.7009 4.55097 4.40109 4.24598 4.08325 3.91255 3.73433 3.54935
3.35847 3.16261 2.96281 2.76021 2.55601 2.35142 2.50864 2.68195 2.85298
3.02267 3.19204 3.3621 3.53376 3.70777 3.88464 4.06463 4.24777 4.43384
4.6224 4.81283 5.00428 5.19573 5.38589 5.57324 5.75603 5.93234 6.10023
6.25797 6.40422 6.53824 6.65991 6.76966 6.86835 6.15502 6.0319 5.90108
5.76256 5.61652 5.46355 5.30503 5.14347 4.98224 4.82373 4.66728 4.50964
4.34743 4.17869 4.00275 3.81967 3.6299 3.43407 3.23303 3.02778 2.81951
2.60951 2.39912 2.55774 2.73243 2.90453 3.07509 3.24528 3.41625 3.58903
3.7645 3.94326 4.12567 4.31181 4.50149 4.6943 4.88959 5.0865 5.2839
5.48037 5.67418 5.86326 6.04531 6.21797 6.37912 6.52721 6.66144 6.78183
6.88912 6.98451 6.26716 6.14558 6.01627 5.87937 5.73524 5.58458 5.42864
5.2692 5.10824 4.94697 4.78502 4.62064 4.45182 4.27711 4.09577 3.90762
3.71284 3.51187 3.30547 3.0946 2.88049 2.66454 2.4482 2.60827 2.78439
2.95759 3.12904 3.30003 3.47184 3.64564 3.82242 4.00291 4.18753 4.37643
4.56949 4.76632 4.96626 5.16843 5.37162 5.57429 5.77448 5.9698 6.15755
6.33488 6.49928 6.64892 6.78298 6.90168 7.0061 7.09784 6.38248 6.26261
6.13488 5.99953 5.85697 5.70794 5.55344 5.39474 5.23302 5.06896 4.90238
4.73236 4.55768 4.37735 4.19068 3.99738 3.79745 3.59122 3.37932 3.16272
2.94268 2.72069 2.49831 2.65993 2.83757 3.01196 3.18435 3.35617 3.5288
3.70354 3.8815 4.0635 4.25007 4.44143 4.63752 4.83796 5.04214 5.24912
5.45765 5.66607 5.87221 6.07337 6.26643 6.44809 6.61539 6.76624 6.89981
7.01656 7.11795 7.206 6.50084 6.38279 6.25662 6.1226 5.98119 5.83303
5.67898 5.51996 5.35675 5.18983 5.01914 4.84418 4.66424 4.4786 4.28671
4.08821 3.88303 3.6714 3.4539 3.2315 3.00549 2.77745 2.54905 2.71233
2.89164 3.06734 3.2408 3.41352 3.58699 3.76263 3.94162 4.12491 4.31313
4.50656 4.7052 4.90872 5.11649 5.32757 5.54066 5.75398 5.96519 6.17134
6.36891 6.55419 6.72383 6.87552 7.00843 7.12326 7.22183 7.30652 6.62219
6.50602 6.38135 6.24843 6.10771 5.9598 5.80543 5.64534 5.48014 5.31022
5.13562 4.9561 4.7712 4.58042 4.3833 4.1795 3.96893 3.75177 3.52858
3.30033 3.06836 2.83433 2.6 2.76508 2.94622 3.12344 3.29813 3.47188
3.64626 3.82276 4.00268 4.18704 4.37655 4.5716 4.77221 4.9781 5.18862
5.40284 5.61937 5.83636 6.05133 6.26112 6.46195 6.6498 6.82103 6.97317
7.10543 7.21868 7.31503 7.39714 6.74646 6.63226 6.50901 6.37697 6.23658
6.08842 5.93318 5.77149 5.60393 5.43084 5.25236 5.06838 4.8786 4.68267
4.48021 4.27093 4.05476 3.83188 3.60287 3.36872 3.13084 2.89092 2.6508
2.81785 3.00104 3.17998 3.35612 3.53107 3.70646 3.88384 4.06458 4.24979
4.44025 4.6364 4.83833 5.04575 5.25804 5.4742 5.69281 5.91193 6.12899
6.34071 6.54319 6.73225 6.90416 7.05639 7.18818 7.30049 7.39557 7.47622
6.8736 6.76147 6.63961 6.50827 6.36791 6.21914 6.06261 5.89897 5.72876
5.55236 5.36995 5.18148 4.98677 4.78556 4.57754 4.36251 4.14045 3.9116
3.67659 3.43648 3.19271 2.94701 2.70127 2.87046 3.0559 3.23681 3.41464
3.591 3.76754 3.94585 4.12734 4.31318 4.50422 4.70095 4.90349 5.11155
5.3245 5.5413 5.76048 5.98003 6.19735 6.40913 6.61148 6.8003 6.97193
7.12391 7.2555 7.36766 7.46259 7.54305 7.00348 6.89355 6.77307 6.64232
6.50178 6.35211 6.19402 6.02819 5.8552 5.67541 5.48903 5.29605 5.09632
4.88964 4.6758 4.45468 4.22637 3.99122 3.74997 3.50375 3.25406 3.00267
2.75145 2.92292 3.11083 3.29396 3.47372 3.6517 3.82955 4.00886 4.19105
4.37735 4.56862 4.7654 4.96783 5.17562 5.38812 5.60424 5.82248 6.04081
6.25661 6.46666 6.66724 6.85447 7.02494 7.17635 7.308 7.42072 7.51655
7.59802 7.13583 7.02827 6.9092 6.77894 6.63806 6.48731 6.32752 6.15943
5.98365 5.80057 5.61033 5.41292 5.20816 4.99588 4.77594 4.54836 4.31336
4.07151 3.82367 3.5711 3.31537 3.05826 2.80162 2.9755 3.16606 3.35162
3.53354 3.71336 3.89269 4.07307 4.25595 4.44254 4.63373 4.83006 5.0317
5.23835 5.44934 5.66357 5.87951 6.09514 6.30791 6.51476 6.71223 6.8968
7.0654 7.21597 7.34781 7.46162 7.55911 7.64252 7.27011 7.1651 7.04749
6.91765 6.77631 6.6244 6.46289 6.29267 6.11436 5.92833 5.73462 5.53309
5.32349 5.10561 4.87937 4.64493 4.40278 4.15368 3.89877 3.63946 3.37742
3.11443 2.85231 3.02867 3.22202 3.41019 3.59447 3.77631 3.95725 4.13881
4.32236 4.5091 4.69993 4.89539 5.09561 5.30034 5.5089 5.72019 5.93271
6.14449 6.3531 6.5557 6.74914 6.93032 7.09656 7.24603 7.37808 7.49319
7.59274 7.67865 7.40537 7.30309 7.18696 7.05748 6.91559 6.76251 6.59945
6.42748 6.24726 6.05904 5.86268 5.65777 5.44386 5.22059 4.98795 4.74628
4.49638 4.23937 3.97672 3.71008 3.44125 3.17205 2.90421 3.08309 3.27931
3.4702 3.65697 3.84097 4.02365 4.20643 4.39065 4.57744 4.76768 4.96189
5.1602 5.36238 5.56776 5.77531 5.98357 6.19069 6.3944 6.5921 6.781
6.95839 7.12195 7.2701 7.40221 7.51857 7.62026 7.70881 7.54008 7.44065
7.32597 7.19672 7.0542 6.90003 6.73582 6.56283 6.3818 6.19277 5.99523
5.78831 5.57111 5.34304 5.10404 4.85472 4.59632 4.33049 4.05916 3.78436
3.50805 3.23209 2.95813 3.1395 3.33862 3.5323 3.72162 3.90784 4.0923
4.27633 4.46119 4.64795 4.83742 5.0301 5.22613 5.42529 5.62698 5.83023
6.03369 6.23566 6.43407 6.62658 6.81073 6.98416 7.14487 7.2915 7.42342
7.54078 7.64438 7.73542 7.67187 7.57529 7.4619 7.33267 7.1894 7.03432
6.86957 6.6968 6.51675 6.32916 6.13287 5.92622 5.70752 5.47567 5.23053
4.97305 4.70511 4.42916 4.14787 3.86373 3.57899 3.29552 3.01487 3.19869
3.4007 3.59716 3.78902 3.97743 4.16363 4.34886 4.5343 4.72092 4.9095
5.10048 5.29401 5.48988 5.68757 5.88622 6.08462 6.28124 6.47422 6.66148
6.84086 7.0103 7.16808 7.31297 7.4444 7.56238 7.66748 7.76062 7.79733
7.70338 7.5909 7.46129 7.31705 7.16129 6.99695 6.8262 6.64984 6.46713
6.27591 6.07314 5.85582 5.6219 5.37099 5.10457 4.82555 4.53764 4.24456
3.94955 3.65515 3.36326 3.0752 3.26142 3.4663 3.66546 3.85976 4.05022
4.23801 4.4243 4.61018 4.79657 4.98417 5.17337 5.3643 5.5568 5.75041
5.9444 6.13771 6.329 6.51661 6.69873 6.87343 7.03892 7.19368 7.33665
7.46723 7.58538 7.69145 7.78616 7.9118 7.8199 7.70762 7.57694 7.43133
7.2751 7.11237 6.9461 6.77728 6.6045 6.42407 6.23078 6.01932 5.78596
5.52982 5.25318 4.96072 4.65812 4.35076 4.04286 3.73735 3.436 3.13981
3.32842 3.53616 3.73792 3.93444 4.12666 4.31572 4.50278 4.68889 4.87491
5.06145 5.24887 5.43725 5.62646 5.81611 6.00557 6.19395 6.38008 6.56253
6.73967 6.90983 7.07143 7.22312 7.36394 7.49333 7.61115 7.71764 7.81332
8.00943 7.91847 7.8052 7.67232 7.52458 7.36788 7.20802 7.04925 6.89305
6.73727 6.57601 6.40062 6.20191 5.9731 5.71233 5.4233 5.11369 4.79245
4.46742 4.14419 3.82598 3.51422 3.20925 3.40044 3.6111 3.81532 4.01366
4.20712 4.39691 4.58426 4.77024 4.95568 5.14111 5.3268 5.5128 5.69894
5.88488 6.07011 6.25385 6.43511 6.61264 6.78504 6.95083 7.1086 7.25716
7.39562 7.52346 7.64049 7.74684 7.84289 8.08349 7.99167 7.87558 7.73875
7.58745 7.42968 7.27355 7.12541 6.98791 6.8584 6.7281 6.58309 6.40759
6.18934 5.92455 5.61944 5.28697 4.94147 4.59448 4.25316 3.92083 3.59806
3.28404 3.47831 3.69214 3.89857 4.0981 4.29191 4.48154 4.66843 4.85377
5.03834 5.22258 5.40664 5.59046 5.77384 5.95645 6.13782 6.3173 6.49405
6.66699 6.8349 6.99649 7.1505 7.29588 7.43182 7.5578 7.67362 7.77931
7.87515 8.12722 8.03199 7.91048 7.76706 7.60968 7.44888 7.29593 7.16053
7.04791 6.95579 6.87213 6.7753 6.63867 6.43999 6.17174 5.84463 5.48099
5.10385 4.72989 4.36794 4.02072 3.6872 3.36465 3.56313 3.78063 3.98886
4.18843 4.38114 4.56922 4.75459 4.93858 5.12192 5.30488 5.48741 5.66931
5.85029 6.02996 6.20791 6.38357 6.5562 6.7249 6.8886 7.04619 7.19656
7.33876 7.47206 7.59596 7.71023 7.81484 7.90999 8.13519 8.0333 7.90298
7.74924 7.58159 7.41333 7.25989 7.13617 7.05245 7.00902 6.99097 6.96622
6.89087 6.72507 6.45404 6.09656 5.69106 5.27401 4.86852 4.48453 4.12318
3.78077 3.45159 3.65647 3.87853 4.08772 4.28525 4.47448 4.65898 4.84141
5.02321 5.20494 5.38655 5.5677 5.74797 5.92689 6.10405 6.27901 6.45127
6.6202 6.78503 6.94486 7.0987 7.24561 7.38472 7.51537 7.63707 7.74956
7.85279 7.94686 8.10486 7.99268 7.84959 7.68065 7.49632 7.31241 7.14928
7.02957 6.97267 6.98561 7.0524 7.12784 7.14256 7.02794 6.75627 6.35977
5.90257 5.43965 5.00093 4.59621 4.22393 3.87689 3.5452 3.76039 3.98837
4.19663 4.38843 4.57051 4.74876 4.92664 5.10548 5.28533 5.46563 5.64562
5.82455 6.0018 6.17684 6.34922 6.5185 6.68415 6.84552 7.00184 7.15229
7.29601 7.43224 7.56034 7.67986 7.79052 7.8922 7.98496 8.03778 7.91196
7.75215 7.56248 7.3529 7.14042 6.9503 6.81572 6.77166 6.8392 7.00449
7.20567 7.33926 7.29679 7.03183 6.59573 6.08666 5.5807 5.11347 4.69349
4.31635 3.97155 3.64436 3.87615 4.1118 4.31531 4.49541 4.66553 4.83474
5.00682 5.18235 5.36042 5.5397 5.71887 5.89684 6.07276 6.24605 6.41625
6.58296 6.74575 6.90411 7.05738 7.20486 7.34579 7.47948 7.60532 7.72284
7.83173 7.93185 8.02321 7.93995 7.79833 7.61901 7.40377 7.15973 6.90195
6.65824 6.47432 6.4106 6.51605 6.78336 7.12477 7.39293 7.43823 7.19807
6.74361 6.20413 5.6732 5.19087 4.76525 4.39095 4.05619 3.74231 3.99856
4.24347 4.43621 4.59764 4.75184 4.91076 5.0772 5.25005 5.42706 5.60597
5.78486 5.9623 6.13728 6.30917 6.47754 6.64209 6.80248 6.95832 7.10908
7.25414 7.39282 7.52446 7.64846 7.76432 7.87171 7.97043 8.06044 7.82094
7.66351 7.46457 7.2222 6.93772 6.61926 6.2906 6.00756 5.86905 5.9799
6.34889 6.8375 7.2369 7.37162 7.18229 6.75311 6.22527 5.70004 5.22188
4.80164 4.43606 4.11508 3.81891 4.10221 4.35615 4.53491 4.67685 4.81724
4.96883 5.13227 5.3045 5.48194 5.66152 5.84086 6.01829 6.19274 6.36358
6.53049 6.69327 6.85174 7.00562 7.1545 7.29782 7.43493 7.56518 7.68793
7.80265 7.90894 8.00655 8.09543 7.69204 7.52164 7.30714 7.04237 6.72107
6.33938 5.90705 5.47837 5.19881 5.27508 5.7554 6.4035 6.91958 7.12805
7.00175 6.63296 6.15387 5.66193 5.20475 4.7979 4.442 4.12972 3.84244
4.13738 4.39642 4.57215 4.71004 4.849 5.0015 5.16715 5.34203 5.522
5.7036 5.88425 6.06225 6.23656 6.4067 6.5725 6.73394 6.89102 7.04358
7.19131 7.33368 7.47006 7.59972 7.72198 7.83621 7.94195 8.03891 8.12698
7.56402 7.38625 7.16476 6.89053 6.55109 6.13089 5.62112 5.06021 4.62595
4.64994 5.24168 6.02942 6.61485 6.85147 6.76294 6.44995 6.02659 5.57739
5.14812 4.75716 4.40788 4.09451 3.80042 4.082 4.34037 4.53164 4.68831
4.84214 5.00548 5.17922 5.36028 5.54493 5.72989 5.91273 6.09186 6.26643
6.43619 6.60122 6.76176 6.91799 7.06994 7.21735 7.35971 7.49632 7.62636
7.74901 7.86355 7.96943 8.06629 8.15398 7.44502 7.26719 7.05034 6.78578
6.46038 6.05603 5.55795 4.99555 4.54749 4.57667 5.19903 5.98061 6.50744
6.68229 6.57069 6.2746 5.88616 5.47091 5.0664 4.68933 4.3435 4.02396
3.7175 3.97641 4.23072 4.44192 4.62604 4.80291 4.98304 5.16877 5.35852
5.54946 5.73884 5.92455 6.10527 6.28044 6.45009 6.61465 6.77468 6.93064
7.08273 7.23076 7.37417 7.51212 7.64363 7.76769 7.88345 7.99023 8.08761
8.17543 7.33953 7.16868 6.9678 6.73207 6.45442 6.12646 5.74773 5.35948
5.11148 5.24483 5.77613 6.34654 6.65415 6.66493 6.46422 6.1403 5.75826
5.36097 4.97321 4.60641 4.26287 3.93844 3.62399 3.86446 4.11401 4.33855
4.54465 4.74269 4.93975 5.13824 5.33748 5.53539 5.72974 5.91874 6.10135
6.27729 6.44698 6.61126 6.77111 6.92735 7.08038 7.23005 7.37568 7.51621
7.65039 7.77698 7.89493 8.00344 8.10201 8.19048 7.24837 7.08937 6.91182
6.71687 6.50694 6.28851 6.08104 5.93605 5.95215 6.21332 6.6226 6.91377
6.93602 6.73747 6.41698 6.0414 5.64743 5.2557 4.87761 4.51805 4.17711
3.85126 3.5346 3.7625 4.00738 4.23823 4.45769 4.6707 4.88124 5.09079
5.29878 5.50344 5.70277 5.89516 6.07974 6.25649 6.42619 6.59021 6.75006
6.90705 7.06182 7.21421 7.36333 7.50777 7.6459 7.77618 7.89731 8.00836
8.10879 8.19845 7.16995 7.02441 6.87164 6.71852 6.57573 6.46061 6.4023
6.4461 6.63889 6.96477 7.26937 7.34554 7.14751 6.78691 6.37192 5.95274
5.54573 5.15567 4.78393 4.43018 4.09261 3.76813 3.45287 3.67186 3.91199
4.14435 4.37021 4.59196 4.81147 5.02925 5.24435 5.45492 5.65889 5.85457
6.04105 6.21844 6.38793 6.55146 6.71132 6.86939 7.02666 7.1829 7.33684
7.48656 7.62993 7.76501 7.89025 8.0046 8.10748 8.19879 7.10206 6.96854
6.83671 6.71727 6.62539 6.58175 6.61303 6.74717 6.99203 7.28973 7.49056
7.44531 7.15347 6.73299 6.28499 5.85226 5.44406 5.05896 4.69384 4.34583
4.01231 3.69066 3.37835 3.59008 3.82491 4.0555 4.28285 4.50829 4.73264
4.95567 5.176 5.39146 5.59965 5.79849 5.98678 6.1646 6.33346 6.49609
6.65571 6.81507 6.97553 7.13671 7.29676 7.45305 7.60281 7.74366 7.87377
7.992 8.09779 8.19111 7.04347 6.91881 6.80126 6.70313 6.6404 6.63162
6.69474 6.8393 7.04957 7.26143 7.36353 7.2645 6.97332 6.57556 6.14972
5.73415 5.33944 4.96522 4.6086 4.26677 3.93751 3.61898 3.30971 3.51448
3.74302 3.96928 4.19446 4.41968 4.64543 4.87113 5.09505 5.31462 5.52685
5.729 5.91927 6.09746 6.26533 6.42652 6.58554 6.74623 6.91044 7.07749
7.24474 7.40861 7.5656 7.71283 7.84826 7.97069 8.07963 8.17517 6.99465
6.87573 6.76599 6.67762 6.62528 6.62331 6.68079 6.7943 6.9386 7.05985
7.08642 6.96797 6.71137 6.36759 5.98925 5.60787 5.23617 4.87712 4.5303
4.19458 3.86901 3.55289 3.24575 3.44288 3.66363 3.88313 4.10308 4.32492
4.54928 4.77563 5.00205 5.22547 5.44215 5.64839 5.84143 6.02047 6.18743
6.34693 6.50502 6.667 6.83526 7.00874 7.18374 7.35561 7.52005 7.67373
7.81445 7.94103 8.05309 8.15086 6.95765 6.84273 6.73666 6.65051 6.59677
6.58579 6.62055 6.69133 6.77242 6.82358 6.8009 6.67692 6.45513 6.16329
5.83361 5.4893 5.14283 4.79968 4.4621 4.13118 3.80769 3.49227 3.18552
3.37355 3.58443 3.79449 4.00621 4.22177 4.44242 4.66798 4.89646 5.12426
5.34667 5.55871 5.75632 5.93777 6.10486 6.26317 6.42047 6.58369 6.75592
6.93559 7.11795 7.29725 7.46846 7.6279 7.77329 7.90353 8.01836 8.11817
6.93498 6.82427 6.72083 6.63407 6.57415 6.54833 6.55635 6.58697 6.61803
6.6207 6.56762 6.44285 6.24733 5.9954 5.70555 5.39327 5.06894 4.73905
4.40796 4.07896 3.75469 3.43728 3.12839 3.30507 3.50328 3.70068 3.90081
4.1071 4.32192 4.54574 4.77661 5.01023 5.24063 5.46125 5.66646 5.85327
6.02304 6.18202 6.33954 6.50411 6.67961 6.86417 7.05217 7.23706 7.41329
7.57696 7.7258 7.85877 7.97572 8.07717 6.92847 6.82381 6.72445 6.63791
6.57194 6.53147 6.51484 6.51188 6.50518 6.47445 6.40205 6.27784 6.10104
5.87813 5.61852 5.33112 5.02335 4.70171 4.37228 4.04064 3.71145 3.38834
3.07402 3.23638 3.41836 3.59904 3.7835 3.97706 4.18389 4.4055 4.63989
4.88171 5.12331 5.35627 5.57314 5.76953 5.94603 6.10905 6.26888 6.43523
6.61277 6.79981 6.99049 7.17797 7.35653 7.52223 7.6728 7.80723 7.92545
8.028 6.93849 6.84257 6.75004 6.66637 6.59695 6.5447 6.50759 6.47752
6.44191 6.38702 6.30142 6.17836 6.01595 5.81564 5.57999 5.3117 5.0145
4.69448 4.35988 4.01922 3.67962 3.3462 3.0225 3.16698 3.32839 3.48735
3.65102 3.8276 4.02405 4.24347 4.48348 4.73688 4.99362 5.24305 5.47595
5.68656 5.87457 6.04591 6.21096 6.37993 6.5582 6.74487 6.9347 7.12127
7.29909 7.46432 7.61471 7.74923 7.86777 7.97084 6.96393 6.87963 6.79699
6.71937 6.64978 6.58942 6.53617 6.4843 6.42568 6.35198 6.25661 6.13552
5.98653 5.80754 5.59475 5.34333 5.05148 4.72486 4.37577 4.01765 3.66084
3.3118 2.97442 3.09723 3.23331 3.36471 3.50132 3.65563 3.8391 4.05701
4.30591 4.57521 4.85131 5.12096 5.37342 5.60197 5.80549 5.98906 6.16227
6.33505 6.51333 6.69742 6.88347 7.06612 7.2405 7.40304 7.55152 7.68486
7.80287 7.90593 7.00262 6.93276 6.86311 6.79482 6.72853 6.6637 6.59813
6.52827 6.45006 6.3601 6.2564 6.1381 6.0041 5.8502 5.66592 5.43488
5.14475 4.80078 4.42437 4.03804 3.65625 3.28613 2.93099 3.02884 3.13521
3.23317 3.33579 3.46181 3.62961 3.84767 4.10985 4.39984 4.69894 4.99113
5.26469 5.51268 5.73361 5.93162 6.11503 6.2929 6.4714 6.65212 6.83293
7.00993 7.17916 7.33749 7.48284 7.6141 7.73092 7.83358 7.05183 6.99932
6.94605 6.89086 6.83176 6.76612 6.69126 6.60541 6.50837 6.40179 6.28866
6.17248 6.05526 5.93353 5.79077 5.59224 5.30287 4.92686 4.50638 4.07982
3.66561 3.26981 2.89389 2.96516 3.03949 3.10009 3.16319 3.25563 3.40576
3.62628 3.90615 4.22031 4.54376 4.85804 5.15136 5.41741 5.65489 5.86722
6.06137 6.24524 6.42483 6.60273 6.7784 6.94946 7.11302 7.26655 7.4082
7.53687 7.65216 7.7542 7.10843 7.07654 7.04384 7.00667 6.95982 6.89756
6.81571 6.71371 6.59541 6.46811 6.34068 6.22193 6.119 6.03295 5.94568
5.79882 5.51365 5.09061 4.61178 4.13724 3.68636 3.26253 2.86489 2.91088
2.95511 2.97989 3.00376 3.06194 3.1945 3.41881 3.71702 4.05379 4.39801
4.72976 5.03812 5.31799 5.56862 5.793 5.99684 6.18677 6.36831 6.54456
6.71617 6.88206 7.04039 7.18928 7.32723 7.45327 7.56696 7.66833 7.16863
7.16099 7.15415 7.14178 7.11437 7.06112 6.97423 6.85348 6.70758 6.55109
6.39978 6.26786 6.1672 6.10419 6.064 5.97141 5.69899 5.23901 4.71419
4.19919 3.71367 3.26243 2.84474 2.87048 2.89237 2.89158 2.8874 2.92048
3.03929 3.26451 3.57282 3.92156 4.27599 4.61591 4.93147 5.21871 5.47736
5.70997 5.92112 6.1162 6.29996 6.4756 6.64444 6.80636 6.96039 7.10529
7.23997 7.36362 7.47586 7.57667 7.22726 7.24742 7.27255 7.29378 7.296
7.26002 7.17039 7.02566 6.8415 6.64304 6.45442 6.29404 6.17479 6.10265
6.06237 5.98003 5.73078 5.2986 4.78488 4.25441 3.7407 3.26506 2.83173
2.84542 2.85765 2.84898 2.83807 2.86492 2.97736 3.1958 3.49721 3.83945
4.18827 4.52398 4.83723 5.1244 5.38518 5.62148 5.83679 6.03526 6.22079
6.39628 6.56333 6.72238 6.87312 7.01484 7.14683 7.26851 7.37958 7.48003
7.27721 7.32734 7.38973 7.45403 7.49868 7.49153 7.40264 7.22639 6.98967
6.7341 6.4943 6.29083 6.13315 6.02096 5.93544 5.82147 5.60349 5.26
4.81352 4.29017 3.7549 3.26143 2.82047 2.83219 2.84855 2.85023 2.85403
2.8935 3.00717 3.21179 3.49019 3.80832 4.1365 4.45631 4.75832 5.03846
5.29577 5.53131 5.74742 5.9471 6.13334 6.30853 6.47425 6.6312 6.77946
6.91875 7.04865 7.1688 7.27902 7.37932 7.30931 7.38803 7.48877 7.60167
7.69964 7.73362 7.6501 7.43472 7.13192 6.80761 6.50837 6.25452 6.04961
5.88669 5.74716 5.59823 5.40467 5.14209 4.76909 4.26837 3.73122 3.23806
2.80303 2.82318 2.85465 2.87863 2.90906 2.97069 3.0902 3.27967 3.5288
3.81426 4.11319 4.40959 4.69409 4.96197 5.21139 5.4424 5.65628 5.85496
6.04054 6.21486 6.37924 6.53445 6.68077 6.81816 6.94646 7.06548 7.17514
7.27548 7.31348 7.41379 7.54527 7.70034 7.84908 7.92643 7.85084 7.59567
7.22664 6.83686 6.48306 6.1832 5.93489 5.72689 5.54265 5.36235 5.16658
4.92903 4.596 4.14308 3.64787 3.18525 2.77309 2.81056 2.86355 2.91407
2.97307 3.05746 3.18429 3.36167 3.58435 3.83795 4.10646 4.37709 4.64128
4.89397 5.13262 5.35641 5.56567 5.76144 5.94501 6.11767 6.28042 6.43394
6.57857 6.71441 6.84144 6.95961 7.06892 7.16947 7.28136 7.39036 7.53453
7.70778 7.87961 7.97736 7.90393 7.62505 7.21843 6.79154 6.40521 6.07523
5.79609 5.55505 5.33723 5.12736 4.90916 4.65865 4.34112 3.94675 3.51943
3.10756 2.7301 2.78982 2.86629 2.94241 3.02668 3.13039 3.26425 3.43363
3.63618 3.86354 4.10519 4.35161 4.59559 4.8323 5.05886 5.27384 5.47689
5.66829 5.84871 6.01893 6.17964 6.33133 6.47432 6.60876 6.73472 6.85222
6.96132 7.06215 7.20947 7.3114 7.44467 7.60188 7.75259 7.82915 7.74514
7.47131 7.0764 6.65701 6.27013 5.93187 5.63801 5.37734 5.13703 4.90398
4.66408 4.40017 4.09538 3.74841 3.3809 3.01921 2.67839 2.7605 2.859
2.95731 3.06208 3.18101 3.32097 3.48562 3.6741 3.88169 4.10169 4.32737
4.55307 4.77453 4.9889 5.19447 5.39042 5.57653 5.75298 5.92012 6.07834
6.22799 6.36928 6.50236 6.62733 6.74424 6.8532 6.95433 5.91731 5.79037
5.6554 5.51173 5.35851 5.19476 5.02019 4.83825 4.66211 4.51041 4.3808
4.25242 4.11323 3.96156 3.79907 3.62763 3.44882 3.26394 3.07413 2.88053
2.68428 2.48656 2.28849 2.44273 2.61299 2.78141 2.9489 3.11644 3.28498
3.45534 3.62814 3.80375 3.98229 4.16362 4.34739 4.53305 4.71991 4.90715
5.09379 5.27874 5.46072 5.63833 5.81007 5.97442 6.12996 6.27558 6.41053
6.53451 6.64765 6.75045 6.02334 5.89684 5.76211 5.61857 5.4655 5.30221
5.12884 4.9491 4.77474 4.62094 4.48558 4.35145 4.20767 4.05214 3.88598
3.71075 3.52783 3.33842 3.14363 2.94464 2.74269 2.53907 2.33508 2.4904
2.66167 2.83079 2.99884 3.16696 3.33629 3.50782 3.68229 3.86018 4.04167
4.22666 4.4148 4.60554 4.79816 4.99175 5.18525 5.37739 5.56668 5.75141
5.92967 6.09954 6.25925 6.40742 6.54323 6.66648 6.77756 6.87727 6.13324
6.00774 5.87398 5.7316 5.58028 5.41997 5.25166 5.0791 4.91041 4.75385
4.60797 4.46286 4.31083 4.14924 3.97815 3.79839 3.61089 3.41661 3.21656
3.01189 2.80392 2.59408 2.38383 2.54021 2.71245 2.88219 3.05067 3.21924
3.38921 3.56174 3.73772 3.91775 4.10208 4.29067 4.48319 4.6791 4.87765
5.0779 5.27867 5.47855 5.67578 5.86827 6.05366 6.2295 6.39353 6.54407
6.68022 6.80199 6.91011 7.00582 6.24698 6.12291 5.99063 5.85003 5.7012
5.54462 5.38172 5.21555 5.05084 4.89135 4.7362 4.58052 4.41968 4.25127
4.07463 3.88988 3.69748 3.49808 3.29253 3.08194 2.86771 2.65138 2.4346
2.59206 2.76526 2.93559 3.10446 3.27339 3.44389 3.61727 3.7946 3.97658
4.16357 4.3556 4.55239 4.75341 4.95792 5.16494 5.37322 5.58119 5.78682
5.9876 6.18062 6.36275 6.53116 6.68379 6.81969 6.93916 7.04342 7.13428
6.36445 6.24211 6.11157 5.97293 5.82653 5.67313 5.5141 5.35165 5.18836
5.02595 4.86394 4.69998 4.53144 4.35649 4.17421 3.9843 3.78682 3.58212
3.37091 3.15425 2.93357 2.71057 2.48708 2.64567 2.81992 2.99088 3.16015
3.32941 3.50036 3.67447 3.85296 4.03668 4.22609 4.4213 4.6221 4.828
5.03828 5.25193 5.46766 5.68375 5.89792 6.1072 6.30805 6.4966 6.6693
6.82364 6.95868 7.0751 7.17476 7.26013 6.48558 6.36516 6.23642 6.09958
5.95513 5.80386 5.64696 5.48595 5.32233 5.15699 4.98972 4.81935 4.64436
4.46345 4.27571 4.08061 3.87794 3.66783 3.45085 3.22802 3.0008 2.77105
2.54077 2.70063 2.87604 3.04777 3.21752 3.38717 3.55855 3.7333 3.91278
4.09798 4.28949 4.48751 4.69192 4.90226 5.11784 5.33766 5.56038 5.78416
6.00647 6.22394 6.43236 6.62705 6.80368 6.9593 7.09297 7.20587 7.30057
7.38026 6.61034 6.49195 6.36494 6.22962 6.0865 5.93635 5.78017 5.61907
5.45403 5.28566 5.1139 4.93818 4.75758 4.57116 4.37809 4.17776 3.96979
3.75417 3.53133 3.30228 3.06854 2.83207 2.59506 2.75636 2.93314 3.10583
3.27626 3.44642 3.61828 3.79361 3.97393 4.16034 4.35357 4.55394 4.76138
4.97551 5.19564 5.42078 5.64953 5.87998 6.10938 6.33399 6.549 6.74898
6.92888 7.0853 7.21737 7.32675 7.41676 7.49124 6.7388 6.6225 6.49713
6.363 6.22064 6.07078 5.91428 5.75205 5.58488 5.41325 5.23726 5.05662
4.87077 4.679 4.48058 4.27487 4.06142 3.84011 3.61132 3.37604 3.13586
2.89284 2.64928 2.81224 2.99066 3.16459 3.33597 3.50685 3.6793 3.85522
4.03623 4.22358 4.41813 4.62028 4.83005 5.0471 5.27075 5.49996 5.73332
5.9688 6.20349 6.43336 6.65318 6.85695 7.03907 7.19583 7.32645 7.43299
7.51932 7.58979 6.87108 6.75696 6.63313 6.49991 6.35781 6.20757 6.04999
5.88591 5.71603 5.54086 5.36058 5.17507 4.98398 4.78675 4.58275 4.37135
4.1521 3.92485 3.68998 3.44849 3.20199 2.95265 2.70285 2.86772 3.0481
3.22363 3.39627 3.56814 3.74137 3.91793 4.09955 4.28759 4.48301 4.68633
4.89762 5.11655 5.34244 5.5742 5.81032 6.04868 6.28625 6.51884 6.74099
6.94648 7.12948 7.28618 7.41588 7.52084 7.60518 7.6735 7.00733 6.89551
6.77317 6.64061 6.49838 6.34722 6.18798 6.02149 5.84847 5.66944 5.48466
5.29412 5.09758 4.89459 4.6846 4.46707 4.24158 4.00805 3.76689 3.51914
3.26648 3.01109 2.7554 2.92246 3.10514 3.28264 3.45694 3.63013 3.80437
3.98168 4.16386 4.35236 4.54823 4.75206 4.96398 5.18366 5.41036 5.64293
5.87977 6.11862 6.35639 6.58884 6.81056 7.01545 7.19789 7.35421 7.48372
7.58865 7.67302 7.74132 7.1477 7.03836 6.91748 6.78538 6.64268 6.49019
6.32884 6.15952 5.98301 5.79986 5.61037 5.41458 5.2123 5.00316 4.7867
4.56248 4.33023 4.08997 3.84222 3.58811 3.32935 3.06815 2.80692 2.97641
3.16172 3.34159 3.51793 3.6928 3.86833 4.04655 4.22928 4.41805 4.61397
4.81767 5.02932 5.24857 5.47462 5.70626 5.94175 6.17878 6.41418 6.64383
6.86259 7.06484 7.24544 7.40106 7.53107 7.63738 7.72361 7.79387 7.29223
7.18559 7.06619 6.9344 6.79093 6.63675 6.47294 6.30052 6.12033 5.93295
5.73867 5.53752 5.32928 5.11363 4.89021 4.65873 4.4191 4.17155 3.9168
3.65609 3.3912 3.1243 2.85774 3.02988 3.21812 3.40071 3.57946 3.75637
3.93348 4.11279 4.29613 4.48502 4.68062 4.88359 5.0941 5.31178 5.53582
5.76489 5.99722 6.23041 6.46136 6.68615 6.90008 7.09817 7.276 7.43067
7.56156 7.67019 7.75957 7.83326 7.44075 7.33708 7.2192 7.08756 6.94305
6.78688 6.62039 6.44476 6.26093 6.06949 5.87063 5.66425 5.45006 5.22771
4.99692 4.75759 4.50991 4.25441 3.99209 3.72437 3.4531 3.18043 2.90859
3.08351 3.27491 3.46051 3.64199 3.82125 4.00022 4.18082 4.36483 4.55376
4.74874 4.95044 5.15903 5.37414 5.59493 5.82007 6.04776 6.27562 6.50067
6.71927 6.92727 7.12037 7.29488 7.44836 7.5802 7.6915 7.78464 7.86254
7.59268 7.49227 7.37594 7.24426 7.09842 6.94002 6.77075 6.59207 6.40502
6.21012 6.00736 5.79637 5.57663 5.34766 5.10922 4.86148 4.60498 4.3407
4.07002 3.79463 3.51649 3.23772 2.96041 3.13818 3.33288 3.52169 3.70615
3.888 4.06906 4.25114 4.4359 4.62481 4.81894 5.01894 5.22497 5.43668
5.65326 5.87342 6.0954 6.31696 6.53528 6.74706 6.94867 7.1365 7.30745
7.45954 7.59212 7.70597 7.80287 7.88512 7.7468 7.64994 7.53511 7.40313
7.25564 7.0948 6.92285 6.74164 6.55231 6.35524 6.15001 5.93575 5.71144
5.47632 5.23015 4.97339 4.70713 4.43296 4.15282 3.86878 3.58298 3.29751
3.01429 3.19489 3.39295 3.58508 3.77267 3.95727 4.14058 4.32425 4.50985
4.6987 4.89183 5.08982 5.29283 5.50055 5.71224 5.92672 6.14238 6.35711
6.56836 6.77319 6.96842 7.151 7.31838 7.46885 7.60183 7.71778 7.818
7.90428 7.90093 7.80779 7.69431 7.56162 7.41206 7.24863 7.07435 6.89163
6.70176 6.5048 6.29966 6.08455 5.85755 5.6173 5.36349 5.09697 4.81963
4.53399 4.24281 3.94874 3.65416 3.36111 3.07132 3.25468 3.4561 3.65157
3.8423 4.02971 4.21531 4.40063 4.58708 4.77587 4.96791 5.16373 5.36347
5.56689 5.77334 5.98181 6.19086 6.39863 6.60284 6.80086 6.98995 7.16748
7.33131 7.47997 7.61289 7.73032 7.83319 7.92285 8.05147 7.96204 7.84951
7.7155 7.56331 7.39717 7.22125 7.03875 6.85117 6.65807 6.45725 6.24533
6.01882 5.77526 5.51403 5.23662 4.9462 4.64676 4.34231 4.0363 3.73143
3.42968 3.13248 3.31853 3.52327 3.72202 3.91582 4.10594 4.29374 4.48063
4.66788 4.85659 5.04753 5.24116 5.43761 5.63668 5.83786 6.0403 6.24281
6.44376 6.64116 6.83269 7.01593 7.18863 7.34892 7.49553 7.6279 7.74612
7.85084 7.94306 8.193 8.10689 7.99456 7.8583 7.70274 7.53381 7.35731
7.17762 6.99661 6.81319 6.62336 6.42118 6.20037 5.95639 5.68803 5.39782
5.0911 4.77431 4.45339 4.13291 3.81592 3.50419 3.19864 3.38735 3.59538
3.79729 3.99395 4.1865 4.37622 4.56445 4.75238 4.94095 5.13083 5.32239
5.51572 5.71065 5.9068 6.10349 6.29975 6.49422 6.68516 6.87054 7.04825
7.21628 7.373 7.51728 7.64858 7.76687 7.87259 7.96649 8.31801 8.23424
8.12085 7.981 7.82104 7.64916 7.47345 7.30007 7.13168 6.96645 6.79786
6.61575 6.409 6.16918 5.89384 5.5874 5.25911 4.91954 4.57763 4.23944
3.90824 3.58525 3.27052 3.46203 3.67342 3.87833 4.07745 4.27189 4.463
4.65214 4.84044 5.02877 5.21766 5.40736 5.59789 5.7891 5.98067 6.17209
6.36258 6.55102 6.73591 6.91549 7.0879 7.25137 7.40444 7.5461 7.67581
7.79347 7.89939 7.99409 8.41711 8.33382 8.21744 8.0721 7.90624 7.73087
7.55722 7.39423 7.24623 7.11103 6.9788 6.8329 6.65364 6.42519 6.14252
5.81363 5.45508 5.08455 4.71553 4.35577 4.00831 3.67313 3.34878 3.54363
3.75863 3.96628 4.16715 4.36255 4.55413 4.74343 4.93164 5.11954 5.30749
5.49559 5.68374 5.87175 6.05933 6.24608 6.43138 6.61429 6.79357 6.96769
7.13501 7.29398 7.4433 7.58205 7.70971 7.82614 7.93149 8.02618 8.48003
8.39434 8.27219 8.11871 7.94458 7.76414 7.59274 7.44361 7.32457 7.23445
7.15992 7.0748 6.94463 6.73912 6.44763 6.08522 5.68249 5.2693 4.86546
4.48012 4.11498 3.76764 3.4341 3.63356 3.85274 4.06266 4.264 4.45876
4.64931 4.83767 5.02511 5.21229 5.39934 5.58611 5.77233 5.9577 6.14191
6.32462 6.50531 6.68323 6.85734 7.02632 7.18877 7.34333 7.48884 7.62447
7.74971 7.86438 7.96856 8.06254 8.49771 8.40567 8.27409 8.10884 7.9226
7.73321 7.56115 7.42622 7.34294 7.31436 7.32509 7.33632 7.28917 7.12523
6.82145 6.40706 5.93958 5.4688 5.02205 4.60818 4.22563 3.86803 3.52741
3.73407 3.95847 4.16964 4.36901 4.56039 4.74767 4.93355 5.11939 5.30552
5.49169 5.6774 5.86211 6.04536 6.22678 6.40602 6.58268 6.75612 6.92549
7.0897 7.24755 7.39786 7.53961 7.67202 7.79462 7.90719 8.00974 8.10245