# vtk DataFile Version 3.0
vtk output
ASCII
DATASET RECTILINEAR_GRID
FIELD FieldData 2
base_index 1 3 int
0 0 0
avtOriginalBounds 1 6 double
-10 10 -10 10 -10 10
DIMENSIONS 50 50 50
X_COORDINATES 50 float
-10 -9.59184 -9.18367 -8.77551 -8.36735 -7.95918 -7.55102 -7.14286 -6.73469
-6.32653 -5.91837 -5.5102 -5.10204 -4.69388 -4.28571 -3.87755 -3.46939 -3.06122
-2.65306 -2.2449 -1.83673 -1.42857 -1.02041 -0.612245 -0.204082 0.204082 0.612245
1.02041 1.42857 1.83673 2.2449 2.65306 3.06122 3.46939 3.87755 4.28572
4.69388 5.10204 5.5102 5.91837 6.32653 6.73469 7.14286 7.55102 7.95918
8.36735 8.77551 9.18367 9.59184 10
Y_COORDINATES 50 float
-10 -9.59184 -9.18367 -8.77551 -8.36735 -7.95918 -7.55102 -7.14286 -6.73469
-6.32653 -5.91837 -5.5102 -5.10204 -4.69388 -4.28571 -3.87755 -3.46939 -3.06122
-2.65306 -2.2449 -1.83673 -1.42857 -1.02041 -0.612245 -0.204082 0.204082 0.612245
1.02041 1.42857 1.83673 2.2449 2.65306 3.06122 3.46939 3.87755 4.28572
4.69388 5.10204 5.5102 5.91837 6.32653 6.73469 7.14286 7.55102 7.95918
8.36735 8.77551 9.18367 9.59184 10
Z_COORDINATES 50 float
-10 -9.59184 -9.18367 -8.77551 -8.36735 -7.95918 -7.55102 -7.14286 -6.73469
-6.32653 -5.91837 -5.5102 -5.10204 -4.69388 -4.28571 -3.87755 -3.46939 -3.06122
-2.65306 -2.2449 -1.83673 -1.42857 -1.02041 -0.612245 -0.204082 0.204082 0.612245
1.02041 1.42857 1.83673 2.2449 2.65306 3.06122 3.46939 3.87755 4.28572
4.69388 5.10204 5.5102 5.91837 6.32653 6.73469 7.14286 7.55102 7.95918
8.36735 8.77551 9.18367 9.59184 10
CELL_DATA 117649
POINT_DATA 125000
SCALARS temp float
LOOKUP_TABLE default
9.59256 9.49653 9.38983 9.27145 9.14031 8.99567 8.83852 8.67503 8.52018
8.39067 8.28513 8.1851 8.07553 7.95103 7.81131 7.6577 7.49166 7.31462
7.1279 6.93292 6.7312 6.52441 6.31432 6.10274 5.89141 5.68189 5.47544
5.273 5.07511 4.88192 4.69325 4.50861 4.32736 4.1487 3.97184 3.79598
3.62041 3.4445 3.26772 3.08964 2.90998 2.72856 2.54535 2.36049 2.1743
2.30242 2.46086 2.61393 2.7613 2.90283 9.7599 9.66643 9.56208 9.44595
9.31712 9.17511 9.02122 8.86151 8.70953 8.57961 8.47046 8.36605 8.25271
8.12495 7.9821 7.82507 7.65507 7.47332 7.28107 7.07972 6.87087 6.65633
6.43809 6.21822 5.99871 5.78136 5.56765 5.35866 5.15503 4.95695 4.76419
4.57623 4.39231 4.21154 4.03299 3.85574 3.67896 3.50189 3.32389 3.14444
2.96312 2.77967 2.59398 2.40616 2.21655 2.34695 2.50782 2.66274 2.8114
2.95371 9.93303 9.84301 9.74218 9.62989 9.5057 9.36973 9.22387 9.07355
8.92858 8.79793 8.68056 8.56607 8.44435 8.31028 8.16238 8.00075 7.82603
7.63906 7.44086 7.23275 7.01635 6.79362 6.56677 6.33811 6.10993 5.88428
5.66285 5.44688 5.23712 5.03377 4.83662 4.64508 4.45828 4.27524 4.09489
3.9162 3.73821 3.56003 3.38091 3.20018 3.0173 2.83189 2.64376 2.45296
2.25982 2.39249 2.5557 2.7123 2.86204 3.0049 10.1118 10.026 9.92953
9.82213 9.70378 9.5752 9.43846 9.29782 9.15936 9.0278 8.90241 8.77735
8.64613 8.50452 8.35056 8.1836 8.00363 7.81102 7.60654 7.39134 7.16707
6.9358 6.69997 6.46216 6.22493 5.99058 5.76105 5.53773 5.32146 5.1125
4.91062 4.71517 4.52523 4.33968 4.15736 3.97711 3.79783 3.61852 3.43828
3.25632 3.07195 2.88465 2.6941 2.5003 2.30357 2.43843 2.60385 2.76196
2.91255 3.05572 10.2961 10.215 10.1234 10.0212 9.9089 9.78731 9.65837
9.52509 9.391 9.25846 9.12698 8.9934 8.85374 8.70483 8.54463 8.37203
8.1865 7.98799 7.77697 7.55446 7.32209 7.08207 6.83704 6.58984 6.34331
6.10003 5.86212 5.63115 5.40805 5.19314 4.98618 4.78649 4.59308 4.40473
4.22017 4.03813 3.85738 3.6768 3.49536 3.31212 3.12625 2.93707 2.74412
2.54731 2.34696 2.4839 2.65136 2.81076 2.962 3.1053 10.4855 10.4095
10.3229 10.226 10.1192 10.0035 9.88042 9.75202 9.6204 9.48677 9.35084
9.21083 9.06428 8.90883 8.74263 8.56434 8.37307 8.16847 7.95073 7.72075
7.48017 7.2313 6.97699 6.72035 6.46447 6.21216 5.96575 5.72695 5.49678
5.27562 5.06324 4.85895 4.66167 4.47015 4.283 4.09883 3.91632 3.73421
3.55134 3.36665 3.17916 2.98802 2.79265 2.59283 2.38889 2.52773 2.69702
2.85755 3.00929 3.15262 10.68 10.6092 10.5278 10.4358 10.3338 10.2227
10.1038 9.97838 9.84787 9.71298 9.57354 9.42848 9.27619 9.11491 8.94296
8.75893 8.56176 8.35084 8.12621 7.88866 7.63984 7.38217 7.1187 6.85274
6.58763 6.32639 6.07151 5.82481 5.58743 5.35978 5.14167 4.93238 4.73084
4.5357 4.3455 4.15877 3.97407 3.79002 3.60536 3.41889 3.2295 3.03622
2.83832 2.6355 2.42805 2.56855 2.73948 2.901 3.05321 3.1966 10.8793
10.8141 10.7377 10.6503 10.5524 10.4449 10.3287 10.205 10.0747 9.9383
9.79572 9.64631 9.48891 9.32212 9.14446 8.95453 8.75117 8.53365 8.3019
8.05668 7.79965 7.53335 7.26097 6.98602 6.712 6.44209 6.17891 5.9244
5.67975 5.44544 5.22131 5.00667 4.80041 4.60116 4.40739 4.21755 4.0301
3.84356 3.65657 3.46784 3.27614 3.08039 2.87978 2.67394 2.46315 2.60503
2.7774 2.93987 3.09261 3.23625 11.0835 11.0239 10.9525 10.8694 10.7751
10.6703 10.556 10.4331 10.3023 10.164 10.0184 9.86484 9.70251 9.53022
9.34664 9.15042 8.94041 8.71586 8.47669 8.22365 7.95847 7.68377 7.40285
7.11934 6.83687 6.5587 6.28755 6.0254 5.77353 5.53245 5.30207 5.0817
4.87027 4.66638 4.46845 4.27487 4.08401 3.89433 3.70436 3.51274 3.31818
3.11955 2.91599 2.70709 2.49317 2.63612 2.80974 2.97318 3.12666 3.27085
11.2923 11.2387 11.1722 11.0932 11.002 10.8994 10.7863 10.6635 10.5318
10.3915 10.2427 10.085 9.91764 9.73962 9.54969 9.34663 9.12935 8.89719
8.65014 8.38905 8.11572 7.83285 7.5438 7.25225 6.96186 6.67593 6.39719
6.12767 5.86867 5.62078 5.38393 5.15751 4.94044 4.73135 4.52863 4.33062
4.13564 3.94207 3.7484 3.5532 3.35519 3.15321 2.94642 2.73446 2.51764
2.66135 2.83606 3.00054 3.155 3.30008 11.5057 11.4582 11.3968 11.3217
11.2333 11.1324 11.0201 10.8971 10.7642 10.6218 10.4698 10.308 10.1355
9.95146 9.75469 9.5441 9.31879 9.07829 8.82278 8.55327 8.27168 7.98078
7.68393 7.3848 7.087 6.79379 6.50786 6.23125 5.96527 5.71053 5.46704
5.23423 5.01108 4.79621 4.58805 4.3849 4.18505 3.98684 3.78874 3.58931
3.38727 3.18151 2.97127 2.75624 2.53678 2.68094 2.85658 3.02215 3.17781
3.32413 11.7232 11.6821 11.6259 11.5545 11.4687 11.3694 11.2576 11.1344
11.0004 10.856 10.7012 10.5354 10.3579 10.1677 9.9636 9.74479 9.51061
9.26091 8.99617 8.71768 8.42752 8.12853 7.82404 7.51764 7.21282 6.91271
6.61994 6.33647 6.06361 5.80201 5.5517 5.31218 5.08249 4.86129 4.64704
4.43804 4.23259 4.02904 3.82585 3.6216 3.41504 3.20518 2.99132 2.77326
2.55139 2.69574 2.87214 3.03881 3.1958 3.3436 11.9438 11.9096 11.8585
11.7909 11.7076 11.6096 11.4985 11.3752 11.2407 11.0951 10.9383 10.7693
10.5873 10.391 10.1794 9.95171 9.70776 9.44783 9.17288 8.88457 8.58525
8.27783 7.9656 7.65199 7.3403 7.03351 6.73408 6.44388 6.16418 5.89564
5.63833 5.39178 5.15511 4.92704 4.70607 4.49057 4.27886 4.06933 3.86047
3.65092 3.43951 3.22532 3.00777 2.78674 2.56265 2.70697 2.88397 3.05166
3.21002 3.35941 12.166 12.1389 12.0932 12.0293 11.9482 11.8517 11.7414
11.6189 11.485 11.3397 11.1825 11.012 10.8267 10.625 10.4059 10.1688
9.91414 9.64273 9.35626 9.05696 8.74752 8.43097 8.11055 7.78948 7.47082
7.1573 6.85118 6.55422 6.2676 5.99197 5.7274 5.4735 5.22942 4.99397
4.76572 4.54313 4.32458 4.10854 3.89357 3.67837 3.46187 3.24323 3.02197
2.79803 2.57182 2.71596 2.8934 3.062 3.22165 3.37261 12.3873 12.3676
12.3271 12.2666 12.1877 12.0927 11.984 11.8636 11.7323 11.59 11.4354
11.2661 11.0798 10.8742 10.6481 10.4012 10.1345 9.84998 9.55023 9.23828
8.91731 8.59054 8.26111 7.932 7.60595 7.28537 6.9723 6.66833 6.37454
6.09154 5.81942 5.5578 5.30591 5.06262 4.82661 4.59643 4.37057 4.1476
3.92618 3.70509 3.48335 3.26019 3.03522 2.80839 2.58009 2.72395 2.90169
3.07104 3.23185 3.38425 12.6038 12.5914 12.5559 12.4983 12.4213 12.3281
12.222 12.1058 11.9804 11.8453 11.6979 11.5345 11.3511 11.1442 10.912
10.6547 10.3744 10.0744 9.75894 9.43205 9.09765 8.75916 8.41957 8.08154
7.74738 7.41913 7.09856 6.78707 6.48565 6.19486 5.91479 5.64507 5.38497
5.13346 4.8893 4.65115 4.41763 4.18744 3.95932 3.73218 3.50508 3.27737
3.04865 2.8189 2.58847 2.73198 2.9099 3.07984 3.24162 3.39527 12.8099
12.8043 12.7729 12.7176 12.6418 12.5506 12.4486 12.3397 12.2251 12.1035
11.9707 11.8205 11.646 11.4418 11.205 10.9365 10.6399 10.3212 9.98644
9.64154 9.29124 8.93918 8.58807 8.24002 7.89681 7.56001 7.23109 6.91128
6.60152 6.30232 6.01377 5.73553 5.46687 5.20682 4.95422 4.70784 4.46644
4.22883 3.99387 3.76055 3.52803 3.29569 3.06316 2.83041 2.59772 2.74082
2.91882 3.08921 3.25175 3.40645 12.998 12.9979 12.9693 12.9147 12.8393
12.7501 12.654 12.5564 12.4594 12.3606 12.2533 12.1273 11.9712 11.7757
11.5363 11.2549 10.938 10.5952 10.2363 9.86933 9.50018 9.13252 8.76849
8.40931 8.05596 7.70947 7.37099 7.04171 6.72256 6.41411 6.11644 5.82919
5.55163 5.2828 5.0216 4.76686 4.51748 4.27235 4.03046 3.7909 3.55289
3.31583 3.07938 2.84348 2.60835 2.75102 2.92902 3.0997 3.26283 3.41833
13.1584 13.1618 13.1335 13.0773 13.0004 12.9127 12.8242 12.7429 12.6722
12.6091 12.5431 12.4579 12.3343 12.1565 11.9171 11.6193 11.2753 10.9007
10.5108 10.1167 9.72549 9.34043 8.96243 8.59127 8.22671 7.86909 7.51943
7.17902 6.84903 6.53018 6.22257 5.92578 5.63901 5.36124 5.09136 4.82827
4.57089 4.31826 4.06944 3.8236 3.58002 3.33816 3.09765 2.85843 2.62064
2.76285 2.9408 3.11165 3.27517 3.43126 13.28 13.2835 13.2519 13.1905
13.109 13.021 12.9407 12.8805 12.8466 12.8358 12.8332 12.813 12.7434
12.5966 12.3598 12.0396 11.6573 11.2397 10.8097 10.3827 9.96658 9.56325
9.17129 8.788 8.41131 8.04079 7.67761 7.3237 6.98086 6.65009 6.33153
6.02462 5.72837 5.4416 5.16309 4.89172 4.62648 4.36642 4.11073 3.85862
3.60945 3.36269 3.118 2.87528 2.63462 2.77637 2.95422 3.12514 3.2889
3.44538 13.3519 13.3505 13.3107 13.2387 13.1474 13.0546 12.9806 12.944
12.9569 13.018 13.1079 13.1871 13.2029 13.1067 12.8755 12.522 12.0851
11.6091 11.1283 10.6629 10.2205 9.80019 9.39641 9.00229 8.61291 8.22702
7.84684 7.47596 7.11744 6.77282 6.44216 6.12456 5.81864 5.52289 5.23592
4.95649 4.68358 4.41629 4.15384 3.89555 3.6408 3.38911 3.14015 2.8938
2.65011 2.79141 2.96914 3.14005 3.30392 3.46062 13.365 13.3527 13.2981
13.2084 13.0989 12.9923 12.9164 12.9 12.9652 13.1177 13.3346 13.5587
13.7045 13.6869 13.4645 13.0618 12.5483 11.9961 11.4545 10.9475 10.4809
10.0489 9.63921 9.23813 8.83595 8.43091 8.02823 7.63523 7.25726 6.89649
6.55256 6.22383 5.90822 5.6037 5.30855 5.02139 4.74113 4.46687 4.1979
3.93358 3.67335 3.41678 3.16355 2.91352 2.66671 2.80759 2.98521 3.15607
3.31996 3.47675 13.3151 13.2851 13.2082 13.0915 12.9516 12.8154 12.7197
12.7073 12.8186 13.0738 13.4518 13.8733 14.205 14.3034 14.095 13.6257
13.0147 12.3728 11.766 11.2202 10.7371 10.3044 9.90063 9.50069 9.08619
8.65555 8.22153 7.79909 7.39711 7.0179 6.65987 6.31996 5.99496 5.68212
5.37929 5.08486 4.79766 4.51682 4.24165 3.97158 3.7061 3.44482 3.18743
2.93379 2.68386 2.82439 3.00194 3.17275 3.33662 3.49342 13.2049 13.151
13.0443 12.89 12.7038 12.514 12.3656 12.3207 12.449 12.7999 13.3604
14.0248 14.5962 14.8505 14.6698 14.1313 13.4206 12.6937 12.0308 11.4576
10.972 10.556 10.1775 9.79314 9.36738 8.90032 8.42196 7.96124 7.53103
7.13212 6.76014 6.40975 6.0762 5.75585 5.44604 5.14498 4.85142 4.5645
4.28359 4.00818 3.73782 3.47214 3.21086 2.95381 2.70092 2.84119 3.01873
3.18954 3.35339 3.51015 13.0442 12.9621 12.8202 12.6195 12.37 12.0961
11.846 11.7036 11.7853 12.1951 12.9386 13.8673 14.703 15.1384 15.0167
14.4481 13.6796 12.9041 12.2129 11.6328 11.1616 10.7809 10.4511 10.1024
9.66734 9.14968 8.61347 8.10853 7.64946 7.23237 6.84846 6.48944 6.14889
5.82226 5.5065 5.19964 4.90044 4.60811 4.32207 4.04189 3.76717 3.49757
3.23282 2.97272 2.71717 2.85731 3.03495 3.20582 3.3697 3.52644 12.8487
12.738 12.5604 12.31 11.9865 11.6006 11.1919 10.8598 10.7897 11.1916
12.1099 13.3082 14.3927 15.0028 14.9837 14.4684 13.7262 12.9651 12.2858
11.7217 11.2763 10.9374 10.665 10.3643 9.92404 9.35325 8.76187 8.22012
7.73991 7.31081 6.91948 6.55506 6.20983 5.87863 5.55822 5.24662 4.9427
4.64577 4.35537 4.07116 3.79278 3.51992 3.25229 2.98965 2.73187 2.87205
3.04993 3.22098 3.38497 3.54175 12.6369 12.5022 12.2954 12.0035 11.6122
11.1101 10.5095 9.90322 9.5575 9.87253 10.9779 12.4635 13.7616 14.5071
14.6071 14.211 13.5688 12.8784 12.2455 11.7125 11.2914 10.9764 10.7307
10.4531 10.0158 9.43007 8.82406 8.27431 7.7908 7.3605 6.96845 6.60296
6.25597 5.9223 5.59881 5.28376 4.9762 4.67566 4.38184 4.09449 3.81333
3.53803 3.26827 3.00377 2.74435 2.88477 3.06305 3.23442 3.39865 3.55556
12.4266 12.2772 12.0559 11.7447 11.3185 10.7447 10.0008 9.1473 8.50437
8.70256 9.99801 11.7354 13.1555 13.9442 14.1089 13.8189 13.2881 12.6861
12.1123 11.6131 11.2046 10.8828 10.6134 10.3132 9.8881 9.3465 8.78335
8.26261 7.797 7.37769 6.99225 6.63038 6.28482 5.95096 5.62615 5.30906
4.9991 4.69609 4.39994 4.11052 3.8276 3.55084 3.27987 3.01434 2.75396
2.89487 3.07374 3.24561 3.41022 3.56737 12.2311 12.0792 11.8633 11.5662
11.1617 10.6136 9.88843 9.03042 8.36013 8.56542 9.91666 11.6404 12.9419
13.5999 13.7078 13.4433 12.9785 12.444 11.92 11.4475 11.041 10.6953
10.3818 10.0464 9.63829 9.16146 8.66668 8.19567 7.76204 7.36281 6.98995
6.63579 6.29463 5.96286 5.63855 5.32093 5.0099 4.70564 4.40834 4.11803
3.83452 3.55744 3.28632 3.02069 2.7602 2.90185 3.08152 3.25409 3.41924
3.57675 12.0578 11.9155 11.7245 11.4746 11.1515 10.737 10.2261 9.68829
9.39696 9.81591 11.0174 12.3526 13.2337 13.5645 13.4857 13.1555 12.6965
12.1939 11.7008 11.2451 10.836 10.4679 10.1207 9.76362 9.37241 8.94825
8.5142 8.0929 7.69461 7.31932 6.9625 6.61897 6.28465 5.95701 5.63492
5.31826 5.00749 4.70323 4.40602 4.11608 3.83325 3.55709 3.28699 3.02233
2.76264 2.90532 3.086 3.25946 3.42533 3.58334 11.908 11.7837 11.6303
11.4487 11.2422 11.021 10.8191 10.7306 10.9425 11.6285 12.632 13.4566
13.7943 13.7122 13.3871 12.9436 12.4521 11.9544 11.4758 11.0294 10.618
10.2363 9.87101 9.506 9.12949 8.74136 8.35129 7.97007 7.60346 7.25173
6.91202 6.58076 6.25507 5.93328 5.61497 5.30063 4.99134 4.68825 4.39233
4.10402 3.8232 3.5493 3.28149 3.01894 2.76102 2.90502 3.08693 3.26147
3.42819 3.58682 11.7792 11.6757 11.5627 11.4515 11.361 11.3226 11.3907
11.6526 12.2049 13.0349 13.8657 14.297 14.2149 13.8128 13.2931 12.7537
12.2279 11.7269 11.2554 10.8148 10.4033 10.0153 9.64278 9.27701 8.91217
8.54772 8.18741 7.83569 7.4948 7.16407 6.84102 6.52274 6.20693 5.89242
5.57923 5.2684 4.96161 4.66069 4.36712 4.08164 3.80417 3.5339 3.26968
3.01041 2.75525 2.90085 3.08417 3.25994 3.42764 3.58697 11.6677 11.5828
11.5039 11.4494 11.4468 11.5349 11.7656 12.1968 12.8542 13.643 14.2876
14.4912 14.2267 13.7031 13.1118 12.5384 12.0037 11.5069 11.0435 10.6089
10.1991 9.80938 9.43465 9.07038 8.71379 8.36448 8.02374 7.69292 7.37199
7.05925 6.75186 6.44687 6.14196 5.83598 5.52911 5.22279 4.91931 4.6213
4.33093 4.04937 3.77649 3.51117 3.25182 2.99693 2.74546 2.89287 3.07773
3.25481 3.42354 3.58361 11.5714 11.5002 11.4442 11.4253 11.4728 11.6223
11.911 12.3633 12.96 13.5901 14.0453 14.1393 13.8685 13.3826 12.8296
12.2853 11.773 11.2937 10.8429 10.4159 10.009 9.61887 9.24297 8.87938
8.52722 8.18663 7.85813 7.54173 7.23615 6.93882 6.64627 6.35498 6.06211
5.76604 5.46677 5.1659 4.86639 4.57181 4.28527 4.00846 3.74125 3.48204
3.22863 2.97907 2.73202 2.88136 3.06776 3.24613 3.41586 3.57664 11.4912
11.4286 11.3849 11.3818 11.4467 11.6078 11.8861 12.282 12.7559 13.2128
13.5167 13.5621 13.3475 12.9594 12.4948 12.0148 11.5453 11.0933 10.6587
10.2397 9.83485 9.44319 9.06435 8.6985 8.34638 8.00896 7.68695 7.38002
7.08638 6.80278 6.52495 6.24838 5.96921 5.68491 5.39488 5.10068 4.80589
4.51518 4.23288 3.96138 3.70055 3.44821 3.20145 2.95775 2.71557 2.86675
3.05454 3.23405 3.40464 3.566 11.4304 11.3737 11.3355 11.3356 11.3974
11.542 11.779 12.0959 12.4504 12.7706 12.9721 12.9956 12.8379 12.5436
12.1701 11.7608 11.3395 10.9172 10.4983 10.0849 9.67898 9.28208 8.89615
8.52333 8.16593 7.82614 7.50547 7.204 6.91993 6.64944 6.38721 6.12736
5.86448 5.59465 5.31627 5.03061 4.74175 4.4556 4.17786 3.91189 3.65759
3.41222 3.17213 2.93429 2.69694 2.84963 3.03846 3.21878 3.38996 3.5517
11.3932 11.343 11.3089 11.3076 11.3583 11.4763 11.6647 11.9072 12.1666
12.3909 12.5271 12.54 12.4246 12.2019 11.903 11.555 11.1766 10.7793
10.3709 9.95746 9.54427 9.13592 8.73659 8.35031 7.98107 7.63265 7.30801
7.00834 6.73222 6.47532 6.23088 5.99101 5.74816 5.49656 5.23328 4.95902
4.6782 4.39787 4.1252 3.8646 3.61628 3.37708 3.14282 2.91009 2.67702
2.8306 3.01989 3.20055 3.37194 3.53376 11.3825 11.3423 11.315 11.3141
11.3545 11.4468 11.5909 11.7715 11.9591 12.1172 12.2113 12.2189 12.1337
11.9632 11.7214 11.4219 11.0761 10.6944 10.2869 9.86391 9.43435 9.00585
8.58475 8.17676 7.78759 7.42301 7.08823 6.78644 6.51721 6.27554 6.05253
5.83733 5.61949 5.3909 5.14709 4.88807 4.61839 4.34596 4.07922 3.82368
3.58009 3.34542 3.11533 2.88632 2.65653 2.81015 2.99917 3.17956 3.35068
3.51225 11.399 11.3735 11.358 11.3626 11.3977 11.47 11.578 11.7094
11.8428 11.9536 12.0194 12.0253 11.9645 11.8361 11.641 11.3802 11.0566
10.6779 10.2577 9.81162 9.35343 8.89384 8.44087 8.00142 7.58263 7.19266
6.84003 6.53139 6.26824 6.04473 5.8485 5.66415 5.47724 5.27695 5.05733
4.81778 4.56288 4.30104 4.04153 3.79081 3.55055 3.31839 3.09046 2.86352
2.63578 2.78852 2.97647 3.15594 3.3263 3.48724 11.4407 11.4351 11.437
11.453 11.489 11.5484 11.6288 11.7216 11.813 11.888 11.9339 11.9419
11.906 11.8196 11.6718 11.448 11.1381 10.747 10.2951 9.8078 9.30569
8.80241 8.30662 7.8252 7.36602 6.93972 6.55957 6.23796 5.98013 5.77913
5.61686 5.47083 5.32114 5.15407 4.96264 4.74611 4.50923 4.2606 4.00985
3.76415 3.52625 3.29504 3.06763 2.84135 2.61463 2.76562 2.95177 3.12972
3.29886 3.45885 11.5043 11.5234 11.5483 11.5816 11.625 11.6785 11.7391
11.8011 11.8578 11.9032 11.9335 11.9469 11.9409 11.9064 11.8203 11.6442
11.3438 10.9197 10.4095 9.85758 9.29404 8.73419 8.18532 7.65241 7.14255
6.66842 6.24946 5.90722 5.65382 5.48092 5.36112 5.26113 5.15402 5.0234
4.86222 4.67047 4.4534 4.21974 3.9791 3.7391 3.50355 3.27276 3.04511
2.81875 2.59247 2.74114 2.92492 3.1009 3.26844 3.42719 11.5851 11.634
11.6879 11.7453 11.8034 11.858 11.9048 11.9405 11.965 11.9812 11.995
12.0138 12.0426 12.076 12.0807 11.9813 11.6924 11.2065 10.6024 9.95956
9.31781 8.69081 8.08173 7.49151 6.92447 6.39393 5.9261 5.55539 5.30512
5.16556 5.0954 5.04646 4.98381 4.88945 4.75756 4.58975 4.39225 4.17392
3.94419 3.71078 3.47834 3.24846 3.02081 2.79444 2.56859 2.71463 2.89575
3.06945 3.23514 3.39246 11.6781 11.7624 11.8524 11.9427 12.0246 12.0884
12.1262 12.1363 12.125 12.1053 12.0943 12.1101 12.1694 12.2783 12.4039
12.4239 12.1571 11.5789 10.8504 10.0997 9.37058 8.67145 8.00073 7.35439
6.73223 6.14603 5.62741 5.22489 4.97604 4.87002 4.84869 4.84734 4.82394
4.76034 4.65297 4.50552 4.32525 4.12113 3.9022 3.67604 3.44774 3.21984
2.99308 2.76734 2.54236 2.68577 2.8641 3.03541 3.19912 3.3549 11.777
11.9027 12.038 12.173 12.2917 12.375 12.4082 12.389 12.3312 12.2606
12.207 12.1995 12.2653 12.4233 12.6508 12.7937 12.5658 11.9165 11.0914
10.251 9.44 8.67118 7.94447 7.2523 6.58931 5.96388 5.40941 4.98349
4.73428 4.65022 4.66058 4.68923 4.6901 4.64575 4.55448 4.42141 4.25436
4.06206 3.85293 3.63411 3.41074 3.18591 2.96111 2.7369 2.51347 2.65439
2.82999 2.99889 3.16061 3.31479 11.8734 12.0464 12.2373 12.4321 12.6055
12.7236 12.7572 12.7002 12.5774 12.4327 12.3112 12.2504 12.2804 12.4202
12.6473 12.8121 12.6359 12.052 11.2577 10.3858 9.50871 8.67817 7.90812
7.189 6.51021 5.87602 5.317 4.88869 4.63781 4.55234 4.56196 4.59104
4.59389 4.55323 4.46744 4.34151 4.18276 3.99911 3.79805 3.58602 3.36788
3.14689 2.92496 2.70313 2.48196 2.6206 2.79358 2.96016 3.1199 3.27251
11.9554 12.1792 12.4344 12.7052 12.9556 13.1294 13.1704 13.0631 12.8498
12.6031 12.3873 12.2442 12.1976 12.2539 12.3825 12.4724 12.3552 11.9642
11.3251 10.4731 9.5448 8.66855 7.87669 7.15557 6.48947 5.8786 5.3469
4.93746 4.68424 4.57513 4.5528 4.55382 4.5371 4.48512 4.39456 4.26869
4.11332 3.93496 3.7399 3.53364 3.32053 3.10372 2.88526 2.66646 2.44814
2.5847 2.7552 2.91955 3.07739 3.22845 12.0081 12.2801 12.6011 12.9568
13.3028 13.5536 13.6107 13.4397 13.1113 12.7407 12.4141 12.1735 12.0314
11.9807 11.9898 11.9941 11.9168 11.696 11.2205 10.4198 9.4846 8.60643
7.82796 7.13281 6.50338 5.93718 5.44999 5.06917 4.81359 4.67182 4.60317
4.56092 4.51155 4.4381 4.33524 4.20389 4.04778 3.87171 3.68059 3.47889
3.27029 3.05763 2.84292 2.62756 2.4125 2.54713 2.71526 2.87747 3.03347
3.18302 12.015 12.3229 12.6961 13.125 13.561 13.8915 13.9678 13.7306
13.2855 12.7955 12.3658 12.0347 11.8033 11.6554 11.5631 11.4888 11.3919
11.2114 10.8133 10.114 9.27273 8.46606 7.74436 7.10091 6.52365 6.01027
5.56992 5.21724 4.96015 4.78863 4.67563 4.58924 4.50416 4.4054 4.28647
4.14628 3.98659 3.81053 3.62163 3.42332 3.21857 3.00981 2.79888 2.58714
2.37559 2.50837 2.67421 2.83436 2.98856 3.13664 11.9622 12.284 12.6781
13.1377 13.6138 13.9808 14.0623 13.7837 13.2704 12.7106 12.2173 11.8245
11.5272 11.3057 11.1346 10.9853 10.8243 10.5964 10.2136 9.63472 8.94625
8.25958 7.62431 7.04853 6.5299 6.06872 5.67035 5.34169 5.0847 4.89113
4.74324 4.61985 4.50277 4.37975 4.24428 4.09403 3.9293 3.7518 3.56386
3.36797 3.16644 2.96124 2.75397 2.54588 2.33795 2.4689 2.6325 2.79062
2.94307 3.08969 11.8441 12.1527 12.5269 12.9572 13.3943 13.7211 13.7798
13.5058 13.0093 12.4589 11.9597 11.5455 11.2128 10.944 10.7169 10.5067
10.2839 10.0085 9.63544 9.15054 8.59411 8.02474 7.47988 6.97445 6.51329
6.09946 5.73668 5.42806 5.17305 4.96519 4.7927 4.64154 4.49893 4.35535
4.205 4.04509 3.87497 3.69533 3.5076 3.31345 3.11461 2.91262 2.70883
2.50433 2.30002 2.42915 2.59052 2.74665 2.89736 3.04252 9.7213 9.62454
9.51612 9.3946 9.25802 9.10413 8.93168 8.74607 8.57083 8.44142 8.35597
8.27671 8.18034 8.06262 7.92564 7.77215 7.60438 7.42404 7.23269 7.03188
6.82334 6.60901 6.39103 6.17159 5.95283 5.73665 5.52463 5.31788 5.11698
4.92206 4.73275 4.54836 4.36797 4.19055 4.01505 3.8405 3.66604 3.49093
3.31458 3.13651 2.95638 2.77399 2.58927 2.40236 2.2136 2.34443 2.50577
2.66123 2.81046 2.95332 9.89549 9.80151 9.69568 9.57669 9.44287 9.29244
9.12499 8.94645 8.7779 8.64828 8.55583 8.46945 8.36817 8.24697 8.10696
7.95024 7.77858 7.59345 7.39621 7.18839 6.9718 6.74858 6.52114 6.29203
6.06374 5.83851 5.61819 5.40409 5.19692 4.99681 4.80338 4.61583 4.43309
4.25399 4.07731 3.90192 3.72681 3.55112 3.37409 3.19513 3.01375 2.82962
2.64257 2.45268 2.26028 2.39368 2.55764 2.71498 2.86538 3.00881 10.076
9.98584 9.88392 9.76935 9.64118 9.49883 9.3435 9.18145 9.02731 8.89703
8.78928 8.68631 8.57332 8.44458 8.29925 8.138 7.96172 7.7713 7.56778
7.35255 7.12744 6.89478 6.65729 6.41788 6.17941 5.94451 5.7153 5.4933
5.27935 5.07363 4.8757 4.68467 4.49936 4.31841 4.14047 3.96424 3.78856
3.6124 3.43488 3.25523 3.07281 2.88711 2.69783 2.50493 2.30877 2.44473
2.61119 2.77016 2.92142 3.06505 10.2629 10.1773 10.0802 9.97122 9.8501
9.71729 9.57489 9.42812 9.28548 9.15436 9.03386 8.91531 8.78981 8.65224
8.50052 8.33402 8.15264 7.95661 7.74652 7.52357 7.28959 7.04708 6.79908
6.54887 6.29974 6.05466 5.81607 5.5857 5.36452 5.15273 4.94988 4.75501
4.5668 4.38376 4.20438 4.0272 3.85091 3.67432 3.49641 3.31622 3.13293
2.94583 2.75441 2.55852 2.35848 2.49693 2.66571 2.82603 2.97778 3.12125
10.4559 10.3754 10.2837 10.1807 10.0666 9.94249 9.81043 9.67413 9.53829
9.40627 9.27751 9.14782 9.01207 8.86637 8.70827 8.53632 8.34963 8.14778
7.93095 7.70008 7.45701 7.20441 6.94562 6.68434 6.42425 6.1687 5.9204
5.68129 5.45248 5.23421 5.02602 4.82688 4.63537 4.44988 4.26876 4.09039
3.91332 3.73621 3.55786 3.37716 3.19308 3.00467 2.8112 2.61234 2.40836
2.54917 2.72004 2.88139 3.03331 3.17631 10.6549 10.5799 10.4938 10.3966
10.2888 10.1716 10.0468 9.91691 9.78458 9.65152 9.51743 9.38015 9.23665
9.08406 8.92002 8.74265 8.55054 8.34273 8.11903 7.88016 7.62791 7.36516
7.09556 6.82318 6.55211 6.28602 6.02789 5.77986 5.54312 5.31801 5.10405
4.90018 4.70491 4.51653 4.33324 4.15331 3.97512 3.7972 3.61819 3.43682
3.25185 3.0621 2.8666 2.66479 2.45689 2.59985 2.77253 2.93465 3.0865
3.22886 10.8599 10.7907 10.71 10.6182 10.5158 10.4038 10.2838 10.1575
10.0267 9.89233 9.7543 9.61144 9.46182 9.30327 9.13361 8.9508 8.75307
8.53911 8.30838 8.06144 7.80009 7.52735 7.24717 6.96398 6.68219 6.40577
6.13793 5.88096 5.63616 5.40392 5.18381 4.97474 4.7752 4.58338 4.39739
4.21536 4.03555 3.85632 3.6762 3.49375 3.30756 3.11624 2.91858 2.71382
2.5021 2.64692 2.82115 2.98388 3.13562 3.27742 11.0709 11.0077 10.9325
10.8456 10.7475 10.6394 10.5224 10.3979 10.2673 10.1311 9.98959 9.84197
9.68694 9.52276 9.34742 9.15886 8.95509 8.73458 8.49658 8.24152 7.97123
7.68886 7.3986 7.10516 6.81323 6.52698 6.24979 5.98406 5.73121 5.49168
5.26508 5.05037 4.84601 4.65015 4.46081 4.27602 4.09388 3.91266 3.73073
3.54653 3.35851 3.16513 2.965 2.75724 2.54189 2.68822 2.86379 3.02715
3.17898 3.32053 11.2882 11.2312 11.1613 11.0789 10.9845 10.8791 10.7639
10.6399 10.5084 10.3699 10.2248 10.0725 9.91209 9.74205 9.56056 9.36556
9.15503 8.92734 8.68165 8.41836 8.13933 7.84782 7.5482 7.24534 6.94408
6.64873 6.36277 6.08867 5.82791 5.58102 5.34768 5.12691 4.91718 4.71663
4.52321 4.33486 4.14956 3.96547 3.78083 3.59399 3.40332 3.20719 3.00414
2.79324 2.57453 2.72197 2.89875 3.06292 3.21528 3.35716 11.512 11.4615
11.397 11.3187 11.2274 11.1239 11.0094 10.885 10.7518 10.6106 10.4615
10.3042 10.138 9.96152 9.77304 9.57063 9.35234 9.11658 8.8626 8.59085
8.30325 8.00315 7.69497 7.38364 7.07402 6.77045 6.47642 6.19444 5.92604
5.67183 5.43157 5.20435 4.98871 4.78278 4.5845 4.39171 4.20232 4.01437
3.82602 3.63555 3.44129 3.24162 3.03514 2.82097 2.59924 2.74738 2.92527
3.09054 3.24396 3.38683 11.7427 11.6989 11.6398 11.5655 11.4767 11.3744
11.26 11.1345 10.9992 10.8547 10.7013 10.5387 10.3662 10.1825 9.98604
9.77506 9.5478 9.3029 9.03982 8.7592 8.46307 8.15482 7.83883 7.51994
7.20293 6.89203 6.59069 6.30138 6.02567 5.76423 5.51691 5.28291 5.06081
4.84882 4.64484 4.4467 4.25224 4.05942 3.86635 3.67129 3.47258 3.26868
3.05833 2.84083 2.61641 2.76489 2.94377 3.11039 3.26535 3.40982 11.9801
11.9436 11.89 11.8195 11.7328 11.6313 11.5164 11.3894 11.2516 11.1038
10.946 10.778 10.5988 10.4073 10.202 9.98127 9.74374 9.48847 9.21529
8.92516 8.62028 8.30406 7.98076 7.65503 7.33142 7.01397 6.70597 6.40985
6.12715 5.85859 5.60411 5.36299 5.13392 4.91517 4.70467 4.50026 4.29976
4.10113 3.90244 3.70197 3.49812 3.2895 3.07504 2.85424 2.62744 2.77595
2.95569 3.12375 3.28055 3.42705 12.2241 12.1954 12.1475 12.0805 11.9957
11.8944 11.7787 11.6501 11.5101 11.3593 11.1977 11.0246 10.839 10.6395
10.4246 10.1931 9.94397 9.67694 9.39243 9.09184 8.77764 8.45325 8.12276
7.79053 7.46079 7.13729 6.82312 6.52056 6.23111 5.95549 5.69373 5.44518
5.20864 4.98245 4.76464 4.55309 4.34568 4.14038 3.93533 3.72883 3.5194
3.3058 3.08715 2.86316 2.63426 2.78256 2.96298 3.13243 3.29115 3.43986
12.4737 12.4534 12.4112 12.3476 12.2641 12.1628 12.0462 11.9164 11.775
11.6225 11.4585 11.2818 11.0907 10.8836 10.6589 10.4157 10.1536 9.87322
9.57578 9.26336 8.93878 8.60552 8.26748 7.92865 7.59285 7.26348 6.94331
6.63447 6.33835 6.05565 5.78644 5.53014 5.28564 5.05139 4.82554 4.60608
4.39098 4.17833 3.96633 3.7534 3.53814 3.31947 3.09669 2.86965 2.6388
2.78673 2.96764 3.13832 3.29886 3.44974 12.7269 12.7154 12.6791 12.6184
12.5357 12.4341 12.3168 12.1868 12.0458 11.8941 11.7306 11.5531 11.3589
11.1455 10.9112 10.6554 10.3788 10.0831 9.77059 9.44437 9.10779 8.76443
8.41796 8.07194 7.72972 7.39423 7.06793 6.75268 6.44975 6.15981 5.8829
5.6185 5.36559 5.12273 4.88821 4.66019 4.4368 4.21625 3.9969 3.77725
3.55605 3.33232 3.10549 2.87548 2.64275 2.79021 2.97143 3.14313 3.30526
3.45812 12.9801 12.9778 12.9469 12.8886 12.806 12.7037 12.5863 12.4579
12.3205 12.174 12.016 11.8427 11.6494 11.4324 11.1894 10.9202 10.6269
10.3129 9.98233 9.63958 9.28871 8.93346 8.57721 8.22301 7.87358 7.53136
7.19839 6.87629 6.56616 6.26861 5.98364 5.71077 5.44903 5.19711 4.95345
4.71639 4.48425 4.25544 4.02845 3.80193 3.57472 3.34594 3.11509 2.88211
2.64742 2.79436 2.97576 3.14824 3.31168 3.46625 13.2274 13.2342 13.2081
13.1509 13.0673 12.964 12.8477 12.7239 12.5952 12.4609 12.3166 12.1556
11.9702 11.7539 11.5034 11.2194 10.906 10.5694 10.2164 9.85333 9.48515
9.11574 8.74802 8.38431 8.0266 7.67666 7.33612 7.00635 6.68832 6.38256
6.08905 5.80729 5.53637 5.27505 5.02193 4.77552 4.53437 4.29705 4.06225
3.82874 3.59546 3.36159 3.12667 2.89061 2.65378 2.80018 2.98162 3.15467
3.31914 3.47509 13.4599 13.475 13.4521 13.3943 13.3082 13.2035 13.0898
12.9749 12.8626 12.7512 12.6335 12.4979 12.3312 12.1225 11.8664 11.5648
11.2255 10.8595 10.4778 10.0892 9.69991 9.31376 8.93278 8.55818 8.19088
7.83192 7.4825 7.14382 6.81681 6.50197 6.19926 5.90816 5.62774 5.3568
5.09406 4.83819 4.58791 4.342 4.09931 3.85872 3.61928 3.38022 3.14107
2.90173 2.66247 2.8083 2.98971 3.16312 3.32833 3.48534 13.6653 13.6866
13.6647 13.6034 13.5126 13.4056 13.2964 13.1963 13.1109 13.038 12.9663
12.8766 12.7462 12.5556 12.2958 11.9709 11.5959 11.1898 10.7701 10.3492
9.93459 9.52921 9.13353 8.74688 8.36868 7.99906 7.63893 7.28954 6.95199
6.62687 6.31414 6.01317 5.72297 5.44232 5.16995 4.90465 4.64529 4.3908
4.14019 3.89247 3.64676 3.40234 3.15874 2.91584 2.67383 2.81907 3.00035
3.17395 3.33966 3.49741 13.8281 13.8522 13.8272 13.7587 13.6598 13.5488
13.4454 13.3665 13.3215 13.3086 13.3114 13.2992 13.2327 13.0766 12.8146
12.4556 12.028 11.5652 11.0945 10.6332 10.1889 9.76279 9.35207 8.95303
8.56279 8.18044 7.80697 7.44424 7.09393 6.75691 6.43311 6.12171 5.8215
5.53112 5.24924 4.97468 4.70639 4.44344 4.18496 3.93007 3.67798 3.42801
3.17973 2.93297 2.68786 2.8325 3.0136 3.18726 3.35324 3.51146 13.9315
13.9527 13.9193 13.8381 13.726 13.6071 13.5086 13.4558 13.4655 13.5396
13.6569 13.77 13.8114 13.7155 13.4511 13.0375 12.5294 11.9854 11.4473
10.9368 10.4601 10.014 9.59036 9.18024 8.77719 8.37923 7.98842 7.6084
7.2422 6.89115 6.55504 6.23262 5.92225 5.62223 5.33106 5.04749 4.77053
4.49931 4.23307 3.97103 3.7125 3.45686 3.20369 2.95281 2.7043 2.84835
3.02924 3.20283 3.36891 3.52736 13.9605 13.9716 13.9225 13.8213 13.6881
13.5529 13.4524 13.4243 13.4993 13.6891 13.9719 14.2791 14.4966 14.5014
14.231 13.727 13.0963 12.4392 11.8157 11.2494 10.7414 10.2808 9.85094
9.43417 9.01807 8.59988 8.18516 7.78183 7.3954 7.02774 6.67801 6.3441
6.02354 5.71411 5.41397 5.12176 4.83645 4.55723 4.28341 4.01434 3.7494
3.48804 3.22989 2.97474 2.72264 2.86611 3.04679 3.22027 3.38631 3.54482