# vtk DataFile Version 3.0
vtk output
ASCII
DATASET RECTILINEAR_GRID
FIELD FieldData 2
base_index 1 3 int
0 0 0
avtOriginalBounds 1 6 double
-10 10 -10 10 -10 10
DIMENSIONS 50 50 50
X_COORDINATES 50 float
-10 -9.59184 -9.18367 -8.77551 -8.36735 -7.95918 -7.55102 -7.14286 -6.73469
-6.32653 -5.91837 -5.5102 -5.10204 -4.69388 -4.28571 -3.87755 -3.46939 -3.06122
-2.65306 -2.2449 -1.83673 -1.42857 -1.02041 -0.612245 -0.204082 0.204082 0.612245
1.02041 1.42857 1.83673 2.2449 2.65306 3.06122 3.46939 3.87755 4.28572
4.69388 5.10204 5.5102 5.91837 6.32653 6.73469 7.14286 7.55102 7.95918
8.36735 8.77551 9.18367 9.59184 10
Y_COORDINATES 50 float
-10 -9.59184 -9.18367 -8.77551 -8.36735 -7.95918 -7.55102 -7.14286 -6.73469
-6.32653 -5.91837 -5.5102 -5.10204 -4.69388 -4.28571 -3.87755 -3.46939 -3.06122
-2.65306 -2.2449 -1.83673 -1.42857 -1.02041 -0.612245 -0.204082 0.204082 0.612245
1.02041 1.42857 1.83673 2.2449 2.65306 3.06122 3.46939 3.87755 4.28572
4.69388 5.10204 5.5102 5.91837 6.32653 6.73469 7.14286 7.55102 7.95918
8.36735 8.77551 9.18367 9.59184 10
Z_COORDINATES 50 float
-10 -9.59184 -9.18367 -8.77551 -8.36735 -7.95918 -7.55102 -7.14286 -6.73469
-6.32653 -5.91837 -5.5102 -5.10204 -4.69388 -4.28571 -3.87755 -3.46939 -3.06122
-2.65306 -2.2449 -1.83673 -1.42857 -1.02041 -0.612245 -0.204082 0.204082 0.612245
1.02041 1.42857 1.83673 2.2449 2.65306 3.06122 3.46939 3.87755 4.28572
4.69388 5.10204 5.5102 5.91837 6.32653 6.73469 7.14286 7.55102 7.95918
8.36735 8.77551 9.18367 9.59184 10
CELL_DATA 117649
POINT_DATA 125000
SCALARS temp float
LOOKUP_TABLE default
7.09016 6.97442 6.85017 6.7168 6.57369 6.42048 6.25806 6.09098 5.92976
5.78575 5.65748 5.53193 5.39886 5.25483 5.09995 4.93537 4.76236 4.58209
4.39569 4.2043 4.00909 3.81129 3.61212 3.41278 3.21433 3.01765 2.82341
2.63201 2.44357 2.258 2.28874 2.46328 2.63907 2.81614 2.99443 3.17369
3.35355 3.53351 3.71291 3.89099 4.06686 4.23949 4.4078 4.57069 4.72712
4.87622 5.01737 5.15021 5.27468 5.39096 7.21384 7.0992 6.97583 6.84322
6.70085 6.54855 6.38741 6.22191 6.06154 5.91604 5.78403 5.65424 5.51731
5.36978 5.21145 5.04324 4.86623 4.6815 4.49015 4.29333 4.09228 3.88835
3.68293 3.47736 3.27287 3.07048 2.87096 2.67477 2.48205 2.2927 2.32333
2.50023 2.67868 2.8588 3.04053 3.22365 3.40778 3.59238 3.77674 3.96
4.14112 4.3189 4.49201 4.65912 4.81897 4.97054 5.11311 5.24638 5.37038
5.48546 7.3418 7.22888 7.10722 6.97648 6.83648 6.68745 6.5309 6.37079
6.214 6.06657 5.9275 5.78942 5.64543 5.49226 5.32916 5.15647 4.97491
4.78533 4.58869 4.38612 4.17892 3.96855 3.75653 3.5444 3.33355 3.12514
2.92005 2.7188 2.52158 2.32823 2.35866 2.53784 2.71891 2.90203 3.0872
3.2742 3.46266 3.65202 3.84152 4.03019 4.21684 4.40004 4.57822 4.74973
4.91306 5.06698 5.21073 5.34404 5.46712 5.58053 7.47395 7.36327 7.2439
7.11575 6.97894 6.8341 6.68284 6.52825 6.37461 6.22508 6.07899 5.93221
5.78033 5.62064 5.45202 5.27431 5.08781 4.89306 4.69086 4.4823 4.26869
4.05161 3.83274 3.61377 3.39629 3.1816 2.97069 2.76415 2.56218 2.36465
2.39474 2.57614 2.75974 2.94578 3.1343 3.32513 3.51789 3.71202 3.90671
4.1009 4.29321 4.48201 4.6654 4.8414 5.00817 5.16428 5.30891 5.44187
5.5636 5.67491 7.61013 7.50204 7.3853 7.25999 7.12646 6.98549 6.83855
6.68783 6.53583 6.38413 6.23234 6.07823 5.91913 5.75302 5.57873 5.39576
5.20406 5.00391 4.79597 4.58122 4.36103 4.13705 3.91114 3.68517 3.46088
3.23973 3.02281 2.81078 2.60388 2.40195 2.43159 2.61511 2.80112 2.98993
3.18165 3.37614 3.57305 3.77181 3.97157 4.17117 4.3691 4.56346 4.75202
4.93243 5.10251 5.26058 5.40577 5.53804 5.65807 5.76699 7.75015 7.64489
7.5309 7.40836 7.27773 7.1398 6.99577 6.84717 6.69548 6.54156 6.3852
6.22518 6.05988 5.88784 5.708 5.5197 5.32266 5.11697 4.90312 4.68206
4.45518 4.22423 3.99121 3.75816 3.52698 3.29928 3.07624 2.8586 2.6466
2.44009 2.46917 2.65469 2.84295 3.03434 3.22902 3.42689 3.62765 3.8307
4.03518 4.23985 4.44304 4.64263 4.83605 5.02058 5.19366 5.3534 5.49888
5.63022 5.7484 5.85487 7.89388 7.7916 7.68034 7.56034 7.43207 7.29627
7.15392 7.0061 6.85379 6.69755 6.53727 6.37228 6.20156 6.02404 5.83879
5.64511 5.4426 5.23121 5.01134 4.78389 4.55027 4.31236 4.07227 3.83219
3.59418 3.35995 3.13078 2.90744 2.69024 2.47902 2.50742 2.69481 2.88513
3.07884 3.27614 3.47701 3.68114 3.88795 4.09655 4.30563 4.5134 4.71751
4.91514 5.10319 5.2788 5.43987 5.58545 5.71584 5.83229 5.93654 8.04123
7.94204 7.83345 7.71571 7.58928 7.45484 7.31321 7.16524 7.01167 6.85291
6.68899 6.5195 6.34377 6.16099 5.97035 5.77118 5.56301 5.34573 5.11969
4.88578 4.64546 4.40067 4.15366 3.90672 3.66203 3.4214 3.18616 2.95715
2.73469 2.51864 2.54626 2.7354 2.92756 3.12327 3.3228 3.52615 3.73304
3.94288 4.15475 4.36728 4.57857 4.78615 4.98694 5.17763 5.35511 5.51713
5.66275 5.79241 5.90756 6.01018 8.19213 8.09614 7.99017 7.87444 7.74941
7.61572 7.47412 7.32536 7.17004 7.00858 6.84104 6.6672 6.48657 6.29852
6.10235 5.89743 5.68331 5.45987 5.22748 4.98703 4.74005 4.48854 4.23482
3.98128 3.73016 3.48333 3.24218 3.00757 2.77985 2.55889 2.58564 2.77639
2.97016 3.16754 3.36884 3.57407 3.78298 3.99496 4.20904 4.42382 4.63733
4.84699 5.04963 5.24183 5.42037 5.58297 5.7287 5.85806 5.9726 6.07443
8.34652 8.25387 8.15048 8.03657 7.91261 7.77923 7.63717 7.48715 7.32976
7.1654 6.99419 6.81598 6.6304 6.43691 6.23492 6.02388 5.80341 5.57346
5.33444 5.08734 4.83371 4.57563 4.31545 4.05561 3.79836 3.54559 3.29871
3.05861 2.82566 2.59974 2.62556 2.81781 3.01296 3.21164 3.4142 3.62068
3.8308 4.04393 4.25908 4.47478 4.68906 4.89929 5.10234 5.29482 5.47358
5.63639 5.78235 5.91195 6.02672 6.12873 8.50423 8.4151 8.31432 8.2021
8.07894 7.94555 7.80271 7.65117 7.49153 7.3242 7.14929 6.96669 6.77606
6.57692 6.36876 6.15115 5.92384 5.68691 5.44091 5.18692 4.9266 4.66204
4.39561 4.12973 3.86663 3.60818 3.35578 3.11032 2.87217 2.64125 2.66609
2.85973 3.05604 3.25567 3.459 3.66607 3.87657 4.08986 4.30492 4.52026
4.73389 4.94327 5.14537 5.33699 5.51519 5.67788 5.82419 5.95453 6.0703
6.17339 8.66494 8.57955 8.48142 8.3708 8.24828 8.11467 7.97088 7.81774
7.65589 7.48571 7.30728 7.12042 6.92475 6.71981 6.50516 6.2805 6.04578
5.80131 5.54784 5.28662 5.01942 4.74835 4.47576 4.20402 3.93528 3.67134
3.41358 3.16284 2.91952 2.68356 2.70738 2.90232 3.09959 3.29985 3.50347
3.7105 3.92061 4.13315 4.34708 4.56091 4.77271 4.98003 5.18009 5.36995
5.54696 5.70922 5.85592 5.98735 6.10467 6.20955 8.82799 8.74658 8.65117
8.54208 8.42007 8.28615 8.14142 7.98685 7.82313 7.65059 7.46917 7.27851
7.0781 6.8674 6.64603 6.41386 6.1711 5.9184 5.65681 5.38783 5.11336
4.83556 4.55674 4.27915 4.00483 3.7355 3.47243 3.21645 2.96794 2.72687
2.74962 2.94581 3.14387 3.34448 3.54798 3.75441 3.96346 4.17448 4.38642
4.59785 4.8069 5.01133 5.20858 5.39605 5.57142 5.73301 5.88004 6.01268
6.13184 6.2389 8.99224 8.91503 8.82238 8.71475 8.59314 8.4589 8.31345
8.15795 7.99316 7.81927 7.63596 7.44252 7.23813 7.02206 6.79393 6.55381
6.3023 6.04049 5.7699 5.49237 5.21001 4.92502 4.63966 4.35603 4.07604
3.80124 3.53281 3.27153 3.01773 2.77142 2.79306 2.99045 3.18919 3.38991
3.59295 3.79835 4.00582 4.2147 4.42403 4.63242 4.83814 5.03915 5.23316
5.4179 5.59136 5.75206 5.89927 6.03305 6.15406 6.26341 9.15581 9.08296
8.99302 8.88669 8.76537 8.63093 8.48522 8.32975 8.16531 7.99186 7.80861
7.61424 7.40733 7.18676 6.95205 6.70354 6.44238 6.17032 5.88952 5.60233
5.31114 5.01824 4.72579 4.43574 4.14977 3.86926 3.59527 3.32848 3.06922
2.81748 2.83793 3.03651 3.23584 3.43651 3.63886 3.84292 4.04842 4.25478
4.46108 4.66607 4.86816 5.06551 5.2561 5.43796 5.60935 5.76898 5.91617
6.05087 6.17354 6.28503 9.31584 9.24732 9.15989 9.05456 8.93337 8.7989
8.65372 8.49979 8.33797 8.16787 7.98788 7.79565 7.5887 7.36517 7.12434
6.86693 6.59486 6.31092 6.01822 5.71984 5.41854 5.11673 4.81644 4.51936
4.22693 3.94031 3.66038 3.38775 3.12272 2.86527 2.88444 3.08419 3.28406
3.4846 3.68612 3.88866 4.09201 4.29564 4.49874 4.70018 4.89854 5.09219
5.27936 5.45832 5.62757 5.78598 5.9329 6.0682 6.19219 6.3055 9.46818
9.40368 9.31824 9.21338 9.09198 8.95772 8.81418 8.66402 8.50826 8.34592
8.17417 7.98891 7.78587 7.56185 7.31566 7.04853 6.76369 6.46549 6.15852
5.84688 5.53385 5.2219 4.91283 4.60799 4.30846 4.01513 3.72872 3.44975
3.17851 2.91497 2.93271 3.13361 3.334 3.53439 3.73506 3.93607 4.13722
4.3381 4.53799 4.73591 4.93062 5.12066 5.30449 5.4806 5.64767 5.8047
5.95109 6.08665 6.21155 6.32626 9.60719 9.54591 9.46153 9.35619 9.23399
9.10009 8.95957 8.8162 8.67131 8.5232 8.36715 8.19628 8.00327 7.78253
7.53199 7.25374 6.95314 6.63715 6.3126 5.98502 5.65829 5.33484 5.01603
4.70266 4.39529 4.0945 3.80086 3.51486 3.23679 2.96667 2.98278 3.18478
3.3857 3.58597 3.78586 3.98541 4.18449 4.38274 4.57957 4.77414 4.96535
5.15196 5.33259 5.50592 5.67079 5.8263 5.97189 6.10733 6.2327 6.34833
9.72574 9.66624 9.58131 9.47397 9.34985 9.21614 9.08007 8.94713 8.81943
8.69453 8.56505 8.4197 8.24604 8.03425 7.78059 7.48865 7.16755 6.82854
6.48187 6.13503 5.79248 5.45629 5.12698 4.80441 4.48845 4.17928 3.8774
3.58339 3.29768 3.02036 3.03453 3.23755 3.43899 3.63922 3.83846 4.03675
4.23397 4.42984 4.62386 4.81531 5.00328 5.18664 5.36423 5.53486 5.69751
5.85137 5.99591 6.13088 6.25628 6.37234 9.81567 9.7556 9.6677 9.55599
9.42797 9.29344 9.16262 9.04379 8.94081 8.85086 8.76315 8.65973 8.51951
8.32509 8.06965 7.75948 7.41042 7.04089 6.66622 6.29635 5.93608 5.58645
5.24646 4.91443 4.58917 4.27047 3.95896 3.65561 3.36115 3.07582 3.08767
3.29156 3.49348 3.69376 3.89253 4.0898 4.28546 4.47925 4.67077 4.85942
5.0444 5.22476 5.39946 5.56748 5.72791 5.88 6.02327 6.15746 6.28251
6.39856 9.86877 9.80482 9.71055 9.59095 9.4556 9.31745 9.1908 9.08836
9.01757 8.97654 8.95073 8.91258 8.82676 8.66224 8.40633 8.07044 7.68237
7.27225 6.8627 6.46626 6.08731 5.72486 5.37524 5.03427 4.69916 4.36938
4.04623 3.73161 3.42692 3.13258 3.14162 3.34616 3.54853 3.74894 3.94744
4.14395 4.33835 4.53041 4.71976 4.90592 5.08821 5.26581 5.43782 5.60335
5.76157 5.91184 6.05369 6.18683 6.3112 6.42686 9.87845 9.80642 9.70134
9.56895 9.42069 9.27299 9.1454 9.05744 9.02338 9.04523 9.10552 9.16372
9.16208 9.04569 8.79084 8.4183 7.97682 7.5147 7.06383 6.63886 6.24243
5.87015 5.51413 5.16615 4.82085 4.47766 4.13976 3.81111 3.49424 3.18978
3.19546 3.4004 3.60316 3.8038 4.0022 4.19822 4.39166 4.58229 4.76982
4.95381 5.13371 5.30881 5.47834 5.64153 5.79766 5.94611 6.08645 6.2184
6.34185 6.45683 9.84161 9.75683 9.63579 9.48425 9.31474 9.14675 9.00607
8.92214 8.92131 9.01502 9.18554 9.37632 9.49672 9.45308 9.2025 8.78175
8.27328 7.75071 7.25595 6.8042 6.39497 6.01938 5.66368 5.31298 4.95738
4.59697 4.23944 3.8929 3.56157 3.24594 3.24779 3.45291 3.65606 3.85703
4.05553 4.25128 4.44402 4.63353 4.81953 5.00167 5.17947 5.35237 5.5197
5.68078 5.83496 5.98169 6.12055 6.25126 6.37367 6.48778 9.76016 9.6583
9.51618 9.33833 9.13653 8.93162 8.75541 8.65072 8.66412 8.82609 9.12313
9.4787 9.75826 9.8147 9.57783 9.10757 8.53131 7.95169 7.41923 6.9482
6.5349 6.16636 5.82209 5.47652 5.1108 4.72696 4.34279 3.97384 3.62605
3.29877 3.29669 3.50197 3.70561 3.90707 4.10586 4.30154 4.49382 4.68245
4.86719 5.04776 5.2238 5.39482 5.56027 5.71954 5.87205 6.01728 6.1548
6.28433 6.4057 6.51886 9.64136 9.51958 9.35274 9.14236 8.89649 8.63333
8.3875 8.21741 8.20216 8.40905 8.83512 9.37228 9.82962 10.0049 9.80427
9.31177 8.69596 8.08349 7.53154 7.05445 6.64783 6.29777 5.97856 5.64948
5.27445 4.8594 4.44155 4.04736 3.68307 3.34514 3.33976 3.54551 3.74994
3.95216 4.15143 4.34724 4.53923 4.72718 4.91091 5.09021 5.26482 5.43434
5.5983 5.75616 5.90736 6.05141 6.18787 6.31641 6.43685 6.54911 9.49685
9.355 9.16317 8.91814 8.62064 8.27972 7.92438 7.62498 7.50927 7.71714
8.26924 8.99439 9.62215 9.91535 9.78278 9.32489 8.72558 8.12173 7.57653
7.10831 6.71613 6.3892 6.10095 5.79593 5.41451 4.96751 4.51807 4.10306
3.72662 3.38142 3.37439 3.58136 3.7871 3.99042 4.19042 4.38652 4.57838
4.76581 4.94875 5.12707 5.30061 5.46906 5.63201 5.78895 5.93933 6.08264
6.21841 6.34628 6.46603 6.57754 9.34034 9.18183 8.96991 8.69609 8.35143
7.92964 7.44121 6.95332 6.65171 6.80757 7.49623 8.42349 9.20024 9.58774
9.53686 9.15898 8.62551 8.06743 7.55167 7.10277 6.72512 6.41193 6.13854
5.84561 5.46457 5.00831 4.55013 4.13011 3.75112 3.4044 3.39827 3.60753
3.81524 4.02006 4.22103 4.41757 4.6094 4.79647 4.97882 5.15647 5.32933
5.4972 5.65969 5.8163 5.96645 6.10958 6.24515 6.37277 6.49216 6.60317
9.18488 9.01655 8.79514 8.50859 8.14021 7.66884 7.08102 6.42257 5.91876
6.00081 6.82712 7.9314 8.79508 9.21571 9.21159 8.90628 8.44711 7.94697
7.46952 7.04246 6.67346 6.35727 6.07141 5.76737 5.3949 4.96393 4.52914
4.12427 3.75411 3.41235 3.40988 3.62251 3.83283 4.03952 4.24164 4.43872
4.63062 4.81744 4.99939 5.17665 5.34927 5.51711 5.67978 5.83675 5.98736
6.13096 6.26695 6.39482 6.51426 6.62511 9.04039 8.87121 8.65468 8.37924
8.0275 7.57521 7.00144 6.34051 5.81837 5.90625 6.77157 7.86719 8.65227
8.98816 8.94974 8.66415 8.25027 7.79526 7.35094 6.94205 6.576 6.24773
5.93893 5.61818 5.2586 4.86565 4.46898 4.09085 3.73728 3.40547 3.40876
3.62547 3.83882 4.04759 4.25099 4.44865 4.64062 4.82724 5.00894 5.18611
5.35895 5.52736 5.69094 5.84905 6.00092 6.14575 6.28281 6.41152 6.53149
6.64254 8.91229 8.75096 8.55335 8.31292 8.0201 7.6633 7.24052 6.80242
6.53998 6.76852 7.52323 8.34856 8.84733 8.9648 8.80471 8.4787 8.071
7.6386 7.21573 6.81929 6.45392 6.11494 5.78955 5.46002 5.11354 4.75242
4.39035 4.03956 3.70481 3.38535 3.39538 3.61628 3.83273 4.04362 4.24825
4.44642 4.63838 4.82476 5.0063 5.18365 5.35718 5.52682 5.6921 5.85223
6.00623 6.1531 6.29195 6.42211 6.54312 6.65477 8.80159 8.65414 8.48464
8.29415 8.08535 7.86601 7.66039 7.53422 7.61559 8.01838 8.62574 9.09473
9.22211 9.06237 8.74036 8.34214 7.91566 7.48862 7.07702 6.68849 6.32409
5.97959 5.64674 5.31595 4.981 4.64254 4.30635 3.97825 3.66093 3.35409
3.37076 3.59541 3.81469 4.02751 4.23321 4.43168 4.62343 4.8094 4.99074
5.16846 5.34313 5.51471 5.68257 5.84566 6.00271 6.15246 6.29385 6.42606
6.54859 6.66124 8.70637 8.57484 8.43532 8.29619 8.17084 8.08128 8.06509
8.18159 8.49424 8.98814 9.46813 9.66269 9.5033 9.12887 8.67899 8.21972
7.77312 7.34609 6.94109 6.5584 6.19616 5.85051 5.51617 5.18789 4.86243
4.5397 4.22184 3.91117 3.60861 3.31354 3.33613 3.56371 3.78534 3.99978
4.20627 4.40473 4.59589 4.78112 4.96209 5.14028 5.31653 5.49078 5.66213
5.82914 5.99016 6.14362 6.28822 6.42304 6.54753 6.66151 8.62394 8.50664
8.39243 8.29465 8.23253 8.23281 8.33055 8.56372 8.94607 9.40749 9.75623
9.79394 9.51123 9.05634 8.56059 8.08097 7.6306 7.20829 6.81038 6.43354
6.07459 5.73023 5.39711 5.07234 4.7542 4.44238 4.13745 3.83991 3.54948
3.26506 3.29265 3.52225 3.74571 3.96147 4.16848 4.36659 4.55671 4.74071
4.92098 5.09963 5.27784 5.45546 5.6312 5.80305 5.96888 6.12673 6.27509
6.41293 6.53971 6.65527 8.55278 8.44593 8.34892 8.27718 8.25119 8.29519
8.43348 8.68065 9.0197 9.37098 9.59077 9.5561 9.2717 8.84459 8.37635
7.91788 7.48396 7.07473 6.68671 6.3165 5.96133 5.61894 5.28747 4.96553
4.65241 4.34792 4.05205 3.76444 3.48407 3.20936 3.24116 3.47205 3.69701
3.91399 4.12148 4.31903 4.50769 4.68995 4.86909 5.04812 5.22859 5.4102
5.59105 5.76845 5.93966 6.10234 6.25476 6.39583 6.52504 6.64233 8.49351
8.39335 8.30562 8.24569 8.23241 8.28479 8.4159 8.62353 8.87772 9.11083
9.22984 9.16602 8.92342 8.56485 8.15777 7.74351 7.33922 6.94919 6.5731
6.20962 5.85762 5.51632 5.18528 4.86438 4.55374 4.25356 3.96378 3.68372
3.41196 3.14644 3.182 3.41381 3.64036 3.85892 4.06728 4.2645 4.45165
4.63186 4.80956 4.98883 5.17172 5.35764 5.54397 5.72719 5.9039 6.0714
6.22781 6.37203 6.5036 6.62257 8.44857 8.35306 8.26962 8.21221 8.19697
8.23785 8.34002 8.49284 8.66509 8.80592 8.85796 8.78316 8.58272 8.29005
7.94578 7.57979 7.20839 6.83885 6.47415 6.11577 5.76479 5.42221 5.08907
4.76642 4.45529 4.15647 3.8702 3.59587 3.33182 3.07552 3.11483 3.34769
3.57649 3.79765 4.00801 4.20592 4.39224 4.57073 4.74705 4.9265 5.11168
5.30173 5.4932 5.68175 5.86339 6.03514 6.19502 6.34195 6.47556 6.59601
8.42104 8.33053 8.25018 8.19192 8.16887 8.191 8.25915 8.36038 8.46756
8.5441 8.55412 8.47525 8.30643 8.06423 7.77135 7.44718 7.10482 6.75246
6.39559 6.03846 5.68455 5.33682 4.99779 4.66966 4.35443 4.0537 3.76838
3.4982 3.24144 2.99498 3.03859 3.27319 3.50555 3.73107 3.94545 4.14607
4.33337 4.51151 4.68721 4.86695 5.05394 5.24713 5.44244 5.63488 5.82008
5.99484 6.15717 6.30603 6.44113 6.5627 8.41314 8.32996 8.25462 8.19665
8.16613 8.16991 8.20686 8.26508 8.32317 8.35537 8.33848 8.25819 8.11192
7.9065 7.65281 7.36136 7.04093 6.69926 6.34384 5.98173 5.61909 5.26085
4.91093 4.57261 4.24887 3.94237 3.65505 3.38744 3.13792 2.90258 2.95161
3.18923 3.42708 3.65935 3.88047 4.08675 4.27797 4.45826 4.63497 4.81541
5.00337 5.19793 5.39483 5.58887 5.77552 5.95154 6.11492 6.26467 6.40053
6.52275 8.42531 8.35287 8.28604 8.2318 8.1972 8.18646 8.19772 8.22147
8.24222 8.24253 8.20741 8.12733 7.99879 7.82244 7.60033 7.33455 7.02852
6.68896 6.32583 5.95002 5.57089 5.19541 4.82862 4.47456 4.13705 3.82002
3.52707 3.26013 3.01804 2.79583 2.85211 3.09461 3.34033 3.582 3.8128
4.02798 4.22655 4.41218 4.59215 4.77402 4.96208 5.15593 5.35178 5.54473
5.73043 5.90572 6.06863 6.21813 6.35394 6.47631 8.45621 8.39811 8.34368
8.29724 8.26285 8.2424 8.23373 8.23008 8.22145 8.19732 8.14904 8.07097
7.95967 7.81155 7.62043 7.37822 7.08035 6.73224 6.34889 5.9477 5.54246
5.142 4.75182 4.37601 4.01886 3.68569 3.38245 3.11367 2.87932 2.67298
2.73915 2.98899 3.24513 3.49859 3.74141 3.96806 4.17685 4.3707 4.55615
4.74044 4.92813 5.11966 5.31224 5.50179 5.68443 5.85723 6.01827 6.16648
6.30153 6.42357 8.50318 8.46296 8.42483 8.39041 8.3607 8.33531 8.31178
8.28588 8.25264 8.2078 8.14877 8.07437 7.98303 7.86893 7.71737 7.50464
7.21109 6.84041 6.41941 5.97789 5.53551 5.10215 4.68243 4.27938 3.89694
3.5416 3.22254 2.94858 2.72221 2.53505 2.61444 2.87442 3.14321 3.40989
3.6657 3.90482 4.12514 4.32877 4.52122 4.7089 4.8964 5.08504 5.27324
5.45803 5.63627 5.80537 5.96354 6.1097 6.24343 6.36478 8.56293 8.54422
8.52665 8.509 8.48897 8.46342 8.4291 8.38378 8.32725 8.2616 8.19079
8.11959 8.05106 7.98102 7.88743 7.72192 7.43271 7.02007 6.53839 6.03973
5.54967 5.07681 4.62317 4.18941 3.77796 3.39582 3.0558 2.77296 2.55432
2.38919 2.48485 2.75714 3.03941 3.31896 3.58679 3.83734 4.0685 4.28178
4.48155 4.67323 4.86117 5.04728 5.23116 5.41095 5.58435 5.74924 5.90405
6.04773 6.17982 6.30029 8.63167 8.63848 8.6467 8.65201 8.64809 8.62784
8.58587 8.52124 8.43861 8.34719 8.25854 8.18464 8.1358 8.11474 8.09842
8.00718 7.72814 7.25338 6.69133 6.12474 5.5811 5.0655 4.57683 4.11272
3.67307 3.26416 2.90178 2.60799 2.39587 2.2525 2.36454 2.64835 2.94191
3.23132 3.50795 3.76691 4.00643 4.22761 4.43383 4.62948 4.8184 5.00281
5.18313 5.35847 5.52732 5.68811 5.83952 5.98065 6.11102 6.23052 8.70476
8.74156 8.78211 8.81885 8.84013 8.83243 8.78556 8.69864 8.58213 8.45428
8.33551 8.24506 8.19989 8.21057 8.25959 8.24549 7.98793 7.46483 6.83992
6.21645 5.62245 5.06534 4.54465 4.05563 3.59509 3.16742 2.78937 2.4875
2.27947 2.15083 2.27281 2.56196 2.86029 3.15354 3.43369 3.69659 3.94077
4.16702 4.37785 4.57667 4.7667 4.9501 5.12778 5.29953 5.46451 5.62166
5.76997 5.90871 6.03744 6.15605 8.77596 8.84708 8.92745 9.00654 9.06582
9.08122 9.03267 8.91718 8.75348 8.57294 8.40669 8.27951 8.20998 8.20849
8.25736 8.2574 8.03248 7.54974 6.94248 6.29819 5.66337 5.06943 4.52386
4.02024 3.55194 3.12076 2.74172 2.44018 2.23302 2.10556 2.22471 2.50832
2.80161 3.09074 3.36807 3.62979 3.87445 4.10244 4.3155 4.51611 4.70679
4.88947 5.06518 5.23414 5.396 5.5501 5.69575 5.8324 5.95969 6.07753
8.83661 8.94463 9.07129 9.20441 9.31767 9.37081 9.32524 9.17196 8.94305
8.69045 8.45862 8.27528 8.15462 8.09861 8.08447 8.03846 7.85408 7.49475
6.98403 6.35114 5.68486 5.06381 4.50588 4.00154 3.54062 3.12213 2.75713
2.46452 2.25537 2.1161 2.22025 2.48798 2.76698 3.0445 3.31313 3.56891
3.81013 4.03664 4.24942 4.45014 4.64062 4.82239 4.99643 5.16314 5.32247
5.47406 5.6175 5.75239 5.87848 5.9957 8.87559 9.01873 9.19287 9.38673
9.56737 9.67363 9.63696 9.43638 9.12506 8.78532 8.47695 8.22752 8.04354
7.91801 7.82803 7.7302 7.57539 7.32674 6.91956 6.31886 5.64901 5.02752
4.478 3.98881 3.54821 3.15324 2.81029 2.53027 2.31765 2.16082 2.24481
2.49186 2.75139 3.01258 3.26841 3.51473 3.74941 3.97175 4.18204 4.3812
4.57041 4.75078 4.92311 5.08782 5.24499 5.39449 5.53606 5.66948 5.79458
5.91133 8.88065 9.05016 9.26223 9.50857 9.75307 9.9148 9.88984 9.64066
9.24626 8.82306 8.44399 8.1337 7.89101 7.70307 7.54947 7.40449 7.24168
7.02316 6.66843 6.13338 5.52283 4.94552 4.43018 3.97098 3.55927 3.19206
2.87213 2.60418 2.38822 2.21485 2.28015 2.50734 2.74689 2.99039 3.23163
3.46656 3.69274 3.909 4.11505 4.31121 4.49813 4.67649 4.84685 5.00956
5.16475 5.3124 5.45237 5.58453 5.7088 5.82519 8.84165 9.02156 9.24904
9.51775 9.791 9.97851 9.95672 9.67795 9.23575 8.76458 8.34259 7.99166
7.70646 7.47193 7.26967 7.08001 6.88087 6.6379 6.29862 5.84274 5.32837
4.8249 4.36151 3.94168 3.56268 3.2231 2.92392 2.66629 2.44819 2.26226
2.31311 2.52406 2.74604 2.97298 3.19982 3.42288 3.63968 3.84874 4.0494
4.24151 4.42527 4.60101 4.76907 4.92966 5.08291 5.22881 5.36731 5.49836
5.62191 5.738 8.75436 8.92518 9.13874 9.38698 9.63317 9.79312 9.75668
9.48282 9.05402 8.59096 8.16665 7.80308 7.49628 7.2329 6.99698 6.77156
6.53736 6.26961 5.94207 5.54912 5.11864 4.68772 4.27888 3.90025 3.55362
3.23942 2.95812 2.70941 2.49073 2.29652 2.33724 2.53591 2.7437 2.95642
3.17021 3.38196 3.58934 3.79082 3.98547 4.17285 4.35283 4.52548 4.6909
4.8492 5.00044 5.14462 5.28172 5.41171 5.53458 5.65039 7.18531 7.06843
6.94231 6.80602 6.65835 6.49788 6.32402 6.14086 5.96501 5.82075 5.70586
5.59385 5.46893 5.32858 5.17459 5.00914 4.83401 4.65064 4.46031 4.26431
4.06397 3.86071 3.65601 3.45128 3.24783 3.04674 2.84878 2.65441 2.46373
2.27656 2.308 2.485 2.66383 2.84455 3.027 3.21091 3.39581 3.58113
3.76615 3.95001 4.1317 4.31007 4.48386 4.65177 4.81256 4.9652 5.10894
5.24342 5.36859 5.48474 7.31406 7.1984 7.0733 6.93794 6.79129 6.63229
6.46089 6.28155 6.10913 5.96339 5.84233 5.72412 5.5945 5.45042 5.29298
5.12392 4.94475 4.75676 4.56116 4.35922 4.15239 3.94224 3.73044 3.51863
3.30834 3.10083 2.89702 2.69744 2.50222 2.31114 2.34244 2.52186 2.70355
2.88761 3.07394 3.26226 3.45211 3.64288 3.83378 4.02384 4.21188 4.39651
4.57616 4.74919 4.91406 5.06951 5.2147 5.34931 5.4735 5.58778 7.44751
7.33378 7.21062 7.07752 6.93392 6.77959 6.61561 6.44655 6.28271 6.13491
6.00174 5.87068 5.73166 5.58102 5.41852 5.24493 5.06117 4.86817 4.66697
4.45878 4.24509 4.02765 3.80832 3.58901 3.37146 3.15713 2.9471 2.74197
2.54191 2.34667 2.37771 2.55947 2.74396 2.93134 3.12156 3.31437 3.5093
3.70574 3.90285 4.09953 4.29442 4.48584 4.67185 4.85038 5.01948 5.17762
5.32388 5.45805 5.58055 5.69223 7.58562 7.47436 7.35382 7.22376 7.08417
6.93551 6.77944 6.61974 6.46239 6.31235 6.16875 6.02545 5.87639 5.71826
5.54993 5.37126 5.18254 4.98425 4.77719 4.56249 4.34167 4.11661 3.88943
3.66226 3.43711 3.21563 2.99906 2.78809 2.58291 2.38325 2.41389 2.5979
2.78509 2.9757 3.16974 3.367 3.56706 3.76927 3.97276 4.17634 4.37844
4.57706 4.76982 4.95413 5.12754 5.28817 5.43503 5.56812 5.68821 5.7966
7.72826 7.61988 7.50229 7.37552 7.2399 7.09625 6.94621 6.79248 6.63834
6.48605 6.33513 6.18259 6.02498 5.85978 5.68557 5.50164 5.30775 5.10401
4.89092 4.66953 4.44138 4.20852 3.97326 3.73802 3.50504 3.2762 3.05286
2.83581 2.62527 2.42094 2.45102 2.63717 2.82691 3.02058 3.21828 3.41984
3.62487 3.83275 4.04258 4.25308 4.4625 4.66849 4.86817 5.05835 5.23598
5.39881 5.5458 5.6772 5.79428 5.89885 7.87534 7.77008 7.65554 7.53191
7.39969 7.25978 7.11357 6.96293 6.80975 6.65517 6.49896 6.33961 6.17512
6.00365 5.82381 5.63462 5.43547 5.22613 5.00691 4.77873 4.54317 4.30242
4.05903 3.81566 3.5748 3.33851 3.10829 2.88501 2.66891 2.4597 2.48907
2.67722 2.86932 3.06582 3.26689 3.47244 3.68211 3.89532 4.11113 4.32821
4.54463 4.75773 4.9641 5.15992 5.34149 5.50615 5.65283 5.78213 5.89588
5.99646 8.02685 7.92485 7.81331 7.69249 7.56293 7.42551 7.28138 7.13189
6.97826 6.82121 6.6607 6.49593 6.32566 6.14853 5.96326 5.76877 5.56422
5.34915 5.12368 4.88867 4.64572 4.39717 4.14576 3.8944 3.64577 3.40211
3.16503 2.93547 2.71371 2.49944 2.52797 2.71796 2.91219 3.1112 3.31526
3.52432 3.73809 3.95597 4.17705 4.39991 4.62249 4.84185 5.05412 5.25486
5.43978 5.60584 5.75196 5.87913 5.98971 6.08663 8.18283 8.08423 7.97558
7.85719 7.72961 7.59365 7.45032 7.30068 7.14567 6.98587 6.82137 6.65174
6.47616 6.29359 6.10286 5.90287 5.69264 5.4716 5.23974 4.99787 4.74765
4.49151 4.23239 3.97335 3.71726 3.46648 3.22271 2.98694 2.75947 2.54003
2.5676 2.75928 2.95537 3.15653 3.36307 3.57503 3.79212 4.01376 4.239
4.46638 4.6937 4.91781 5.13452 5.33892 5.52629 5.69329 5.8389 5.96438
6.07254 6.16671 8.34346 8.24836 8.14253 8.02624 7.90006 7.76476 7.62128
7.47057 7.31348 7.15056 6.98199 6.80755 6.62668 6.43852 6.24202 6.03609
5.81974 5.59235 5.35387 5.10511 4.84777 4.58437 4.31797 4.05174 3.78866
3.53115 3.28097 3.03915 2.80603 2.58135 2.60788 2.80109 2.99877 3.20165
3.41012 3.62423 3.8437 4.06793 4.29593 4.52615 4.75632 4.98315 5.20229
5.40863 5.59727 5.76478 5.91017 6.03486 6.14188 6.23472 8.5089 8.4175
8.31443 8.19998 8.07472 7.93944 7.79511 7.64266 7.48293 7.31649 7.1436
6.96416 6.77772 6.58356 6.38075 6.16825 5.94517 5.7109 5.46546 5.20971
4.9454 4.67511 4.40193 4.12908 3.85955 3.59579 3.33957 3.09194 2.85328
2.62335 2.64879 2.8434 3.04239 3.24656 3.45632 3.67176 3.89257 4.1181
4.34727 4.57849 4.80939 5.03666 5.25597 5.46233 5.65098 5.8186 5.96424
6.08928 6.19667 6.28982 8.67935 8.59187 8.49158 8.37876 8.25402 8.11828
7.97255 7.81785 7.65507 7.4848 7.30734 7.12262 6.93026 6.7296 6.51981
6.30001 6.06942 5.82761 5.57475 5.3118 5.04059 4.76371 4.48422 4.2053
3.92988 3.66036 3.39849 3.14532 2.90125 2.66609 2.69041 2.88632 3.08637
3.29138 3.50182 3.71773 3.9388 4.16431 4.39311 4.6235 4.85311 5.0787
5.29613 5.50078 5.6883 5.85567 6.00197 6.12838 6.23752 6.33252 8.85485
8.7716 8.67414 8.56277 8.43824 8.30161 8.15408 7.99681 7.83076 7.65655
7.47445 7.28433 7.08579 6.87819 6.66081 6.43291 6.19398 5.94386 5.68296
5.41244 5.13423 4.85089 4.56541 4.28085 3.99998 3.72512 3.45794 3.19947
2.95011 2.70973 2.73293 2.93007 3.13096 3.33642 3.54692 3.76251 3.98283
4.2071 4.43411 4.66214 4.88881 5.11105 5.32506 5.52674 5.7123 5.8791
6.02627 6.15471 6.26656 6.36452 9.03519 8.95652 8.86196 8.75189 8.62725
8.4894 8.33981 8.17988 8.01066 7.83276 7.64631 7.45104 7.24638 7.03164
6.80615 6.56942 6.32126 6.06192 5.7922 5.51352 5.22795 4.93803 4.64664
4.35662 4.07057 3.79062 3.51835 3.25473 3.00016 2.75455 2.77664 2.97498
3.17652 3.38209 3.59214 3.80668 4.02536 4.24737 4.47148 4.69597 4.91855
5.13637 5.34604 5.54403 5.72712 5.8931 6.04113 6.17181 6.28681 6.38831
9.21968 9.14597 9.05437 8.94538 8.82031 8.68095 8.52923 8.36686 8.19502
8.01424 7.8244 7.62484 7.41467 7.19297 6.95912 6.71287 6.45452 6.18488
5.90527 5.61754 5.32392 5.02699 4.72943 4.43386 4.14262 3.85764 3.58033
3.31158 3.0518 2.80088 2.82185 3.0214 3.22348 3.42889 3.63805 3.85098
4.06732 4.2863 4.50671 4.7269 4.94474 5.15761 5.36256 5.55658 5.73699
5.90193 6.05063 6.18342 6.30153 6.40666 9.40683 9.33844 9.24976 9.14156
9.01567 8.87456 8.72084 8.55669 8.38347 8.20152 8.01019 7.80818 7.59391
7.36603 7.12383 6.86741 6.5977 6.31633 6.02541 5.72731 5.42458 5.11982
4.81551 4.514 4.2173 3.92708 3.64458 3.37059 3.10544 2.84905 2.86889
3.06967 3.27224 3.47731 3.6853 3.89623 4.10976 4.3252 4.54144 4.75695
4.96977 5.17758 5.3778 5.56787 5.74557 5.90931 6.05837 6.1929 6.31375
6.42223 9.59399 9.53113 9.44518 9.33727 9.21003 9.06697 8.91169 8.74707
8.57469 8.39454 8.20512 8.00392 7.78817 7.55567 7.30544 7.03804 6.75538
6.46028 6.15599 5.84569 5.53234 5.21856 4.90662 4.59847 4.29579 3.99991
3.71186 3.43229 3.16149 2.89937 2.91802 3.12008 3.32313 3.5278 3.73449
3.94321 4.15372 4.3654 4.57728 4.78802 4.99586 5.19874 5.39442 5.58071
5.75572 5.9181 6.06718 6.20296 6.32602 6.43732 9.77678 9.71943 9.6357
9.52728 9.39797 9.25277 9.09674 8.93379 8.76585 8.59234 8.41037 8.21542
8.00261 7.76813 7.51049 7.23088 6.93278 6.62096 6.30035 5.97531 5.64934
5.32503 5.00433 4.68868 4.37927 4.07708 3.78288 3.49721 3.2203 2.95208
2.96942 3.17282 3.37639 3.58071 3.78611 3.99265 4.20014 4.40809 4.61569
4.82179 5.02485 5.22306 5.41447 5.59718 5.76955 5.93042 6.07914 6.21564
6.34027 6.45374 9.94864 9.89625 9.81376 9.70362 9.57123 9.42369 9.26814
9.11005 8.95194 8.79251 8.62673 8.44675 8.24399 8.01177 7.74749 7.45346
7.13589 6.8027 6.46151 6.11833 5.77725 5.44071 5.11002 4.78591 4.4689
4.15953 3.85836 3.56582 3.28217 3.00731 3.02317 3.22793 3.43211 3.6362
3.84049 4.04505 4.24974 4.4542 4.65779 4.85955 5.05814 5.252 5.43941
5.6187 5.78845 5.94762 6.09562 6.23228 6.35784 6.47277 10.1004 10.0517
9.96879 9.85513 9.71823 9.56797 9.41443 9.26547 9.12475 8.9903 8.854
8.7027 8.52139 8.29798 8.02781 7.71524 7.37138 7.00963 6.64177 6.27604
5.91702 5.56657 5.22486 4.89143 4.56591 4.24831 3.93902 3.63856 3.34725
3.06508 3.07919 3.2853 3.49019 3.69425 3.8977 4.10061 4.30288 4.50426
4.70425 4.90205 5.09654 5.28636 5.47001 5.64602 5.81313 5.97042 6.11732
6.25363 6.37948 6.4952 10.2208 10.1733 10.0874 9.96763 9.82409 9.67018
9.51996 9.38498 9.27131 9.17688 9.08967 8.98834 8.84666 8.64234 8.36654
8.02763 7.64605 7.24475 6.84185 6.44825 6.06852 5.70302 5.34988 5.00672
4.67181 4.34464 4.02567 3.71578 3.4156 3.12523 3.13721 3.3446 3.55028
3.75453 3.95748 4.15916 4.35948 4.55826 4.75511 4.94939 5.14017 5.32626
5.50637 5.6792 5.84364 5.99887 6.14434 6.27984 6.40541 6.52127 10.2972
10.2471 10.1546 10.0252 9.87173 9.71181 9.56471 9.44766 9.37155 9.33615
9.32558 9.30655 9.23355 9.06459 8.78211 8.40265 7.9648 7.50798 7.05939
6.63234 6.23002 5.84976 5.48619 5.13378 4.78879 4.45021 4.11923 3.79772
3.48698 3.18732 3.19667 3.4052 3.61172 3.81637 4.01916 4.22004 4.4189
4.61558 4.80978 5.00098 5.18842 5.37108 5.54786 5.71762 5.8794 6.03243
6.17622 6.31053 6.43535 6.55082 10.3186 10.261 10.1569 10.013 9.84442
9.67311 9.52492 9.42558 9.39505 9.43928 9.5407 9.65056 9.69165 9.58394
9.29129 8.84706 8.32515 7.79225 7.2866 6.82192 6.39754 6.00562 5.63526
5.27578 4.92021 4.5674 4.22068 3.88429 3.56075 3.25049 3.25664 3.4661
3.67349 3.87874 4.08168 4.28213 4.47995 4.67498 4.86698 5.05552 5.23998