# vtk DataFile Version 3.0
vtk output
ASCII
DATASET RECTILINEAR_GRID
FIELD FieldData 2
base_index 1 3 int
0 0 0
avtOriginalBounds 1 6 double
-10 10 -10 10 -10 10
DIMENSIONS 50 50 50
X_COORDINATES 50 float
-10 -9.59184 -9.18367 -8.77551 -8.36735 -7.95918 -7.55102 -7.14286 -6.73469
-6.32653 -5.91837 -5.5102 -5.10204 -4.69388 -4.28571 -3.87755 -3.46939 -3.06122
-2.65306 -2.2449 -1.83673 -1.42857 -1.02041 -0.612245 -0.204082 0.204082 0.612245
1.02041 1.42857 1.83673 2.2449 2.65306 3.06122 3.46939 3.87755 4.28572
4.69388 5.10204 5.5102 5.91837 6.32653 6.73469 7.14286 7.55102 7.95918
8.36735 8.77551 9.18367 9.59184 10
Y_COORDINATES 50 float
-10 -9.59184 -9.18367 -8.77551 -8.36735 -7.95918 -7.55102 -7.14286 -6.73469
-6.32653 -5.91837 -5.5102 -5.10204 -4.69388 -4.28571 -3.87755 -3.46939 -3.06122
-2.65306 -2.2449 -1.83673 -1.42857 -1.02041 -0.612245 -0.204082 0.204082 0.612245
1.02041 1.42857 1.83673 2.2449 2.65306 3.06122 3.46939 3.87755 4.28572
4.69388 5.10204 5.5102 5.91837 6.32653 6.73469 7.14286 7.55102 7.95918
8.36735 8.77551 9.18367 9.59184 10
Z_COORDINATES 50 float
-10 -9.59184 -9.18367 -8.77551 -8.36735 -7.95918 -7.55102 -7.14286 -6.73469
-6.32653 -5.91837 -5.5102 -5.10204 -4.69388 -4.28571 -3.87755 -3.46939 -3.06122
-2.65306 -2.2449 -1.83673 -1.42857 -1.02041 -0.612245 -0.204082 0.204082 0.612245
1.02041 1.42857 1.83673 2.2449 2.65306 3.06122 3.46939 3.87755 4.28572
4.69388 5.10204 5.5102 5.91837 6.32653 6.73469 7.14286 7.55102 7.95918
8.36735 8.77551 9.18367 9.59184 10
CELL_DATA 117649
POINT_DATA 125000
SCALARS temp float
LOOKUP_TABLE default
6.67309 6.55407 6.42689 6.29103 6.14592 5.99128 5.82798 5.6603 5.49803
5.3516 5.21954 5.08974 4.95275 4.80546 4.64805 4.48165 4.30748 4.12667
3.94033 3.74953 3.55541 3.3591 3.16176 2.96445 2.76814 2.57361 2.38141
2.20981 2.38092 2.55252 2.72511 2.89903 3.07447 3.25145 3.42982 3.6093
3.78943 3.96963 4.1492 4.32728 4.50291 4.67499 4.84237 5.00389 5.15846
5.30519 5.44346 5.57293 5.69358 5.80565 6.78949 6.67132 6.54479 6.40943
6.26481 6.11078 5.94845 5.78198 5.62021 5.47211 5.3363 5.20227 5.06141
4.91058 4.74968 4.5796 4.40143 4.2162 4.025 3.82893 3.62918 3.42702
3.22373 3.02054 2.81856 2.61867 2.42151 2.24571 2.41841 2.59175 2.7663
2.94251 3.12062 3.3007 3.48263 3.66611 3.8507 4.03577 4.22053 4.40403
4.58514 4.76256 4.93489 5.1007 5.25869 5.4078 5.54733 5.67699 5.79688
5.90742 6.90993 6.79319 6.66806 6.53425 6.39161 6.24041 6.08207 5.92033
5.76157 5.61135 5.46866 5.32664 5.17895 5.02259 4.85695 4.68242 4.49973
4.30971 4.11333 3.91169 3.70602 3.4977 3.28816 3.07878 2.87082 2.66529
2.46292 2.28268 2.45692 2.63192 2.80836 2.98677 3.16748 3.35061 3.53608
3.7236 3.91272 4.10278 4.29292 4.48209 4.66897 4.85204 5.02959 5.1999
5.36136 5.51273 5.65323 5.78266 5.9013 6.0098 7.03431 6.91948 6.7963
6.66469 6.5248 6.37725 6.22357 6.06666 5.91049 5.75796 5.60842 5.45802
5.3027 5.13999 4.96893 4.78943 4.60184 4.40673 4.20492 3.99746 3.78563
3.57091 3.35486 3.13904 2.92485 2.71344 2.50563 2.32075 2.49649 2.67308
2.85133 3.03185 3.21505 3.40112 3.59003 3.78152 3.97513 4.17018 4.36577
4.56072 4.75354 4.94243 5.12537 5.30025 5.46515 5.61859 5.75975 5.88853
6.00544 6.11144 7.16247 7.04989 6.92896 6.79978 6.66272 6.51852 6.36858
6.21496 6.05996 5.90508 5.7499 5.59236 5.43003 5.26105 5.08441 4.89971
4.70698 4.50657 4.29913 4.08568 3.86752 3.64622 3.42349 3.20106 2.98047
2.76301 2.54959 2.3599 2.53711 2.71524 2.8952 3.07771 3.26325 3.4521
3.64426 3.83953 4.03746 4.23735 4.43825 4.63888 4.83756 5.03224 5.22053
5.39992 5.5681 5.72336 5.86484 5.99258 6.10741 6.21061 7.29426 7.18413
7.06556 6.93875 6.80414 6.66251 6.51499 6.36302 6.20799 6.0507 5.89093
5.72757 5.55915 5.38435 5.20223 5.01226 4.81426 4.60839 4.39519 4.17561
3.95101 3.72305 3.49358 3.26446 3.0374 2.8138 2.59466 2.40005 2.57874
2.75837 2.93995 3.12429 3.31199 3.50337 3.69852 3.89725 4.09914 4.30351
4.50934 4.71526 4.91943 5.11954 5.31284 5.49641 5.66757 5.82435 5.96586
6.09234 6.20492 6.30525 7.42953 7.322 7.20577 7.0811 6.94844 6.80852
6.66227 6.51072 6.35478 6.19497 6.03123 5.86291 5.68912 5.50889 5.32143
5.12614 4.92275 4.71128 4.49219 4.26642 4.03535 3.80072 3.56453 3.32877
3.09527 2.86554 2.64065 2.44106 2.62126 2.80237 2.98549 3.17151 3.36113
3.55474 3.75249 3.95424 4.15959 4.36783 4.57792 4.78841 4.99733 5.20212
5.39973 5.58686 5.76048 5.91842 6.05978 6.18498 6.29546 6.3932 7.56821
7.46337 7.34942 7.22661 7.09542 6.95649 6.81061 6.65861 6.50116 6.33868
6.1712 5.99837 5.81958 5.63413 5.44133 5.24062 5.03165 4.81441 4.58932
4.35729 4.11976 3.87856 3.63577 3.39351 3.1537 2.91795 2.68737 2.4828
2.66457 2.84716 3.03173 3.21928 3.41056 3.60605 3.80594 4.01013 4.21823
4.42953 4.64295 4.85697 5.06949 5.27781 5.47861 5.66835 5.84375 6.00248
6.14365 6.26784 6.37672 6.4725 7.71024 7.60818 7.49645 7.37528 7.24513
7.10662 6.96047 6.8074 6.64801 6.48267 6.31148 6.13426 5.95058 5.7599
5.56164 5.35526 5.14046 4.91721 4.68594 4.44759 4.20365 3.956 3.70681
3.45827 3.21238 2.97077 2.73462 2.52513 2.70857 2.89265 3.07862 3.26752
3.46019 3.65716 3.85867 4.06463 4.27467 4.48804 4.70363 4.91986 5.13455
5.3449 5.54749 5.73863 5.91496 6.07411 6.21519 6.33887 6.44693 6.54169
7.85554 7.7564 7.64685 7.52714 7.39771 7.2592 7.11232 6.95775 6.7961
6.62772 6.45278 6.27114 6.08252 5.88646 5.68246 5.47009 5.24909 5.01951
4.78183 4.53705 4.28671 4.03276 3.77739 3.52283 3.2711 3.02386 2.7823
2.56798 2.7532 2.93884 3.12615 3.31627 3.51005 3.70808 3.91063 4.11764
4.3287 4.54305 4.75954 4.97653 5.19182 5.40257 5.60539 5.79664 5.97303
6.13223 6.2734 6.39719 6.50535 6.60017 8.00398 7.90792 7.80057 7.68217
7.55322 7.41441 7.26648 7.11018 6.94609 6.7746 6.59587 6.40981 6.21615
6.01449 5.80444 5.58566 5.35802 5.12168 4.87726 4.62587 4.36909 4.10892
3.84756 3.58722 3.3299 3.07725 2.83044 2.61139 2.79852 2.98576 3.17441
3.3656 3.56023 3.75892 3.96194 4.16925 4.38042 4.59466 4.81077 5.02711
5.24146 5.45106 5.65266 5.84281 6.01844 6.17737 6.31879 6.44326 6.55238
6.64827 8.15524 8.06246 7.95735 7.84018 7.71154 7.57222 7.42309 7.26497
7.09848 6.924 6.74163 6.55125 6.35256 6.14517 5.92875 5.70312 5.46831
5.22471 4.97311 4.71478 4.4514 4.18498 3.91772 3.65175 3.38902 3.13112
2.87918 2.65549 2.84466 3.03359 3.22357 3.41572 3.61097 3.80992 4.01288
4.21978 4.43018 4.64329 4.85789 5.07232 5.28444 5.49161 5.6908 5.8789
6.0531 6.21147 6.35322 6.47877 6.58948 6.68721 8.3087 8.21942 8.11661
8.00061 7.87215 7.73223 7.58191 7.42212 7.25354 7.0765 6.89099 6.6967
6.49323 6.28014 6.05714 5.82422 5.58166 5.33016 5.0708 4.80504 4.53471
4.26185 3.9886 3.71701 3.44892 3.18583 2.92882 2.7005 2.89184 3.08255
3.27387 3.4669 3.66256 3.86145 4.06386 4.26972 4.47861 4.68972 4.90185
5.11339 5.3223 5.52612 5.7221 5.90747 6.0798 6.23735 6.37939 6.50618
6.6188 6.71882 8.46328 8.37772 8.27724 8.16232 8.03395 7.89344 7.74212
7.58113 7.4112 7.23253 7.04486 6.84761 6.64004 6.42157 6.19193 5.9513
5.70032 5.44012 5.17217 4.89828 4.62042 4.3407 4.06118 3.78379 3.51025
3.2419 2.97975 2.74674 2.94036 3.13291 3.32559 3.51945 3.71536 3.9139
4.11537 4.31969 4.52646 4.73491 4.94387 5.15184 5.3569 5.5568 5.74911
5.9314 6.10155 6.25807 6.40025 6.52822 6.64279 6.74521 8.61724 8.53552
8.43734 8.32337 8.19498 8.05396 7.90209 7.74078 7.5708 7.39216 7.20415
7.0056 6.79526 6.57219 6.33605 6.08727 5.82703 5.55704 5.2794 4.99634
4.71011 4.42285 4.13657 3.85303 3.57374 3.29991 3.03243 2.79456 2.99053
3.18497 3.37902 3.57366 3.7697 3.96771 4.16795 4.37037 4.5746 4.77993
4.98528 5.18927 5.39013 5.58587 5.77431 5.95336 6.12119 6.27649 6.41859
6.54751 6.66382 6.76849 8.76785 8.68998 8.59389 8.4806 8.35205 8.2107
8.059 7.89879 7.7309 7.55497 7.36955 7.1725 6.96164 6.73534 6.49307
6.23564 5.96494 5.68367 5.39477 5.10114 4.80536 4.50966 4.21592 3.92567
3.64019 3.3605 3.08735 2.84433 3.04265 3.239 3.43439 3.62977 3.82587
4.02323 4.22208 4.4224 4.62386 4.82583 5.02736 5.2272 5.42377 5.61529
5.79986 5.97565 6.14107 6.29498 6.43673 6.56626 6.68396 6.79054 8.91123
8.83691 8.74246 8.62935 8.50034 8.35891 8.20844 8.05141 7.88879 7.71966
7.54142 7.35032 7.14252 6.9152 6.66744 6.40055 6.11764 5.82287 5.52054
5.21444 4.90762 4.60235 4.30029 4.00265 3.7104 3.42431 3.14499 2.89638
3.09701 3.29518 3.49187 3.68793 3.88406 4.08072 4.27814 4.47631 4.67495
4.87353 5.07123 5.26694 5.45928 5.64668 5.82747 6.00004 6.16301 6.31535
6.45647 6.58623 6.70485 6.81289 9.04206 8.97058 8.87689 8.76311 8.6331
8.49176 8.34384 8.19283 8.03996 7.88363 7.71946 7.54111 7.34195 7.11701
6.8646 6.58688 6.289 5.97748 5.65865 5.33763 5.01798 4.70189 4.39062
4.08488 3.78518 3.49201 3.20584 2.95104 3.1538 3.35363 3.55148 3.74816
3.94428 4.14027 4.33632 4.53243 4.72837 4.92369 5.1177 5.30945 5.49775
5.68119 5.85834 6.02776 6.18823 6.33885 6.47904 6.6086 6.72768 6.83666
9.15364 9.08365 8.98927 8.87342 8.74142 8.60006 8.45606 8.3145 8.17731
8.04211 7.90203 7.74668 7.56467 7.3472 7.09117 6.8002 6.48293 6.14984
5.81039 5.47142 5.13698 4.80894 4.48774 4.17327 3.86541 3.56431 3.27039
3.00858 3.21313 3.41432 3.6131 3.81026 4.00636 4.20174 4.39657 4.59081
4.78428 4.9766 5.16719 5.35524 5.53973 5.71944 5.89309 6.05944 6.21739
6.36612 6.50509 6.63408 6.75313 6.86252 9.23827 9.16762 9.07033 8.95024
8.81446 8.67218 8.53293 8.40433 8.28985 8.18671 8.0848 7.96751 7.81554
7.61317 7.35461 7.04613 6.70261 6.34108 5.97564 5.61529 5.26433 4.92365
4.59232 4.26883 3.95215 3.64208 3.33919 3.06922 3.27497 3.47701 3.67637
3.87382 4.06985 4.26472 4.45851 4.65115 4.84245 5.03211 5.21961 5.40429
5.58526 5.76147 5.9318 6.09516 6.25057 6.39727 6.53478 6.66284 6.78144
6.89076 9.28825 9.21388 9.11053 8.98299 8.84029 8.69459 8.55918 8.44575
8.36101 8.30295 8.25786 8.20015 8.09739 7.92149 7.66147 7.3285 6.94858
6.54945 6.15176 5.76682 5.39844 5.04564 4.70504 4.37293 4.04687 3.72644
3.41279 3.13303 3.33905 3.54118 3.74061 3.93808 4.13398 4.32843 4.5214
4.71273 4.90222 5.08957 5.27436 5.45601 5.63377 5.80674 5.97394 6.13442
6.2873 6.43192 6.56778 6.69463 6.81241 6.92124 9.29736 9.21538 9.10189
8.96238 8.80765 8.6531 8.5169 8.41702 8.36641 8.3665 8.40067 8.43122
8.40501 8.27215 8.01191 7.64439 7.2149 6.7678 6.33206 5.92075 5.53601
5.17369 4.82662 4.48749 4.15167 3.81879 3.49168 3.19977 3.40464 3.60584
3.80471 4.00191 4.19762 4.39176 4.58412 4.77444 4.96246 5.14787 5.3303
5.50928 5.68415 5.85416 6.01846 6.17623 6.32668 6.46919 6.60332 6.72879
6.8455 6.95351 9.26269 9.16878 9.04039 8.88305 8.7086 8.5353 8.38714
8.29128 8.27176 8.33855 8.47449 8.62683 8.712 8.6447 8.38709 7.97442
7.48304 6.98036 6.50428 6.0682 5.67129 5.30521 4.95752 4.61503 4.26924
3.92054 3.57576 3.26844 3.47025 3.66932 3.86702 4.06372 4.25925 4.45322
4.6452 4.83478 5.02163 5.20543 5.38586 5.56249 5.73482 5.90219 6.06389
6.21919 6.36738 6.50791 6.64032 6.76435 6.87985 6.98684 9.18603 9.07619
8.92817 8.74638 8.54199 8.33456 8.15371 8.03905 8.0333 8.16379 8.41692
8.72102 8.95193 8.9754 8.72916 8.27029 7.71642 7.16136 6.65065 6.19663
5.79538 5.43476 5.09618 4.75709 4.40136 4.0314 3.66293 3.3364 3.53308
3.72904 3.92524 4.12145 4.31697 4.511 4.70285 4.89195 5.0779 5.26038
5.43911 5.61376 5.7839 5.94901 6.10847 6.26162 6.40786 6.54662 6.67748
6.80013 6.91442 7.02031 9.07422 8.94583 8.77483 8.56283 8.31757 8.0562
7.81108 7.63638 7.60497 7.77805 8.1512 8.62311 9.01739 9.14938 8.93554
8.45572 7.86535 7.28006 6.75132 6.29138 5.89554 5.55058 5.23314 4.90733
4.54231 4.14435 3.74622 3.39812 3.58864 3.78146 3.97652 4.1727 4.36862
4.56306 4.75505 4.94392 5.12921 5.31063 5.48797 5.66097 5.82932 5.99259
6.15025 6.30171 6.4464 6.58376 6.71335 6.83484 6.94804 7.05289 8.93821
8.79117 8.59697 8.35283 8.05966 7.72624 7.37979 7.08584 6.96253 7.13806
7.62912 8.27542 8.82707 9.06744 8.91595 8.46763 7.89214 7.3145 6.79165
6.33942 5.95611 5.63116 5.34027 5.03454 4.66292 4.23656 3.81077 3.44489
3.63107 3.82247 4.01776 4.21489 4.41191 4.60723 4.79971 4.98859 5.17344
5.35404 5.53025 5.70196 5.86895 6.03088 6.18728 6.33761 6.48128 6.61774
6.74649 6.86717 6.97954 7.0835 8.79091 8.62843 8.41565 8.14485 7.80798
7.39955 6.92982 6.46167 6.16741 6.29674 6.91596 7.75016 8.44002 8.76784
8.69182 8.31697 7.80163 7.2656 6.76936 6.33448 5.96408 5.65119 5.37317
5.07769 4.70603 4.27136 3.83781 3.4676 3.65494 3.84845 4.04619 4.24569
4.44469 4.64146 4.83477 5.0239 5.2085 5.38848 5.56386 5.73465 5.90075
6.0619 6.21769 6.36755 6.51088 6.64704 6.77551 6.89583 7.00774 7.11111
8.64459 8.47312 8.25168 7.96924 7.6105 7.15619 6.59438 5.96845 5.48782
5.55052 6.29864 7.29741 8.06834 8.42763 8.39537 8.0875 7.64027 7.15711
6.69572 6.2807 5.91827 5.60302 5.31441 5.00972 4.64603 4.2335 3.82011
3.46269 3.65785 3.85744 4.06002 4.26332 4.46519 4.66392 4.85838 5.04796
5.23248 5.41203 5.58684 5.7571 5.92283 6.08385 6.23976 6.38994 6.5337
6.67031 6.79915 6.91969 7.0316 7.13473 8.5086 8.33654 8.1199 7.84809
7.50513 7.06881 6.52028 5.89219 5.39475 5.46306 6.24739 7.23833 7.93732
8.21953 8.15672 7.86764 7.46223 7.02048 6.58943 6.19115 5.83183 5.50647
5.19845 4.88013 4.52866 4.14969 3.76936 3.43464 3.64145 3.84966 4.05868
4.2668 4.47216 4.67325 4.86908 5.05924 5.24378 5.42304 5.59752 5.76762
5.93355 6.09516 6.25202 6.40341 6.54849 6.6864 6.81636 6.93775 7.0502
7.1535 8.38803 8.22353 8.02483 7.78597 7.49821 7.15102 6.74292 6.32144
6.06381 6.26063 6.94086 7.68122 8.11627 8.19818 8.02455 7.69924 7.30009
6.87939 6.46822 6.08166 5.72357 5.38944 5.0677 4.74275 4.40373 4.05311
3.70304 3.39157 3.60982 3.82692 4.04274 4.25599 4.46507 4.66866 4.86595
5.05671 5.24125 5.42026 5.59457 5.76488 5.93158 6.09456 6.2533 6.40689
6.55428 6.69439 6.82628 6.94922 7.06275 7.16667 8.28385 8.13255 7.96036
7.76839 7.55921 7.34018 7.13394 7.00149 7.06111 7.4167 7.95802 8.36774
8.46008 8.2874 7.9659 7.57522 7.15958 6.74431 6.34388 5.96501 5.60843
5.27015 4.94269 4.61761 4.28959 3.9594 3.63219 3.3401 3.56706 3.79158
4.01343 4.23142 4.44405 4.65006 4.84872 5.03995 5.22435 5.403 5.57718
5.74799 5.91603 6.08121 6.24283 6.3997 6.55044 6.6937 6.82834 6.9535
7.06866 7.17364 8.19423 8.05803 7.91409 7.7703 7.63914 7.54106 7.51083
7.60309 7.87579 8.31368 8.73521 8.89031 8.71803 8.34822 7.90996 7.46406
7.03066 6.61595 6.22204 5.84899 5.49498 5.15639 4.82841 4.50637 4.18748
3.87169 3.56092 3.28378 3.51608 3.74575 3.97221 4.19411 4.40985 4.61804
4.81786 5.0093 5.19324 5.37123 5.54517 5.71665 5.88658 6.05482 6.22037
6.38161 6.53675 6.68408 6.82223 6.95023 7.06751 7.17394 8.11664 7.99394
7.87386 7.76885 7.69682 7.68246 7.75805 7.9582 8.29472 8.70157 9.001
9.01106 8.72531 8.28189 7.80206 7.33807 6.90176 6.49184 6.10487 5.73764
5.38716 5.05038 4.72419 4.406 4.09427 3.78869 3.48973 3.22395 3.45847
3.69094 3.92044 4.14532 4.36369 4.57381 4.77458 4.96593 5.14896 5.32583
5.49922 5.67145 5.84374 6.01588 6.18638 6.35305 6.51352 6.66571 6.80798
6.93929 7.05907 7.16722 8.04968 7.93689 7.83303 7.7525 7.71426 7.74067
7.8539 8.06686 8.36299 8.66779 8.84836 8.79223 8.50557 8.08824 7.63414
7.18997 6.76912 6.37156 5.994 5.63326 5.28672 4.95229 4.62821 4.31322
4.00661 3.70814 3.41771 3.16059 3.39474 3.62797 3.85912 4.08624 4.30696
4.51899 4.72074 4.91184 5.09357 5.26881 5.44124 5.61416 5.78921 5.96596
6.14228 6.31517 6.48164 6.63917 6.78593 6.92079 7.04324 7.15327 7.99389
7.88748 7.79241 7.723 7.6967 7.73097 7.83753 8.01379 8.23135 8.42717
8.51537 8.43334 8.18607 7.83243 7.43493 7.03163 6.6382 6.2585 5.89216
5.53794 5.19475 4.86184 4.53877 4.22536 3.92164 3.62766 3.34325 3.09282
3.32448 3.55685 3.78868 4.0177 4.24096 4.45541 4.65866 4.84983 5.03024
5.20355 5.37472 5.54822 5.72623 5.90801 6.09056 6.26999 6.44262 6.60551
6.75669 6.89503 7.0201 7.132 7.9516 7.84962 7.75863 7.69164 7.66357
7.68716 7.76686 7.89233 8.0342 8.14514 8.17227 8.08108 7.87353 7.58113
7.24172 6.88296 6.51987 6.15913 5.80347 5.45424 5.11242 4.77889 4.45455
4.14027 3.83685 3.54486 3.26432 3.01905 3.24639 3.47667 3.7087 3.93988
4.16655 4.38467 4.59078 4.7832 4.96311 5.13488 5.30486 5.47889 5.65976
5.84635 6.03478 6.22025 6.39842 6.56606 6.72111 6.86248 6.98983 7.1034
7.92569 7.82844 7.7404 7.67264 7.63729 7.64344 7.69155 7.76924 7.85105
7.90296 7.89195 7.79778 7.62007 7.37462 7.08275 6.76254 6.42619 6.08132
5.73305 5.38529 5.04127 4.70364 4.37465 4.05622 3.74999 3.45721 3.17844
2.93705 3.15833 3.38563 3.61793 3.8522 4.08391 4.3078 4.51912 4.71514
4.8966 5.06834 5.23799 5.41267 5.59583 5.78614 5.97902 6.16894 6.35115
6.52221 6.68005 6.82361 6.95266 7.06752 7.91825 7.82791 7.74456 7.67707
7.63473 7.62376 7.64285 7.68068 7.71717 7.7284 7.693 7.59807 7.44163
7.23038 6.97471 6.68462 6.3684 6.03341 5.68665 5.3347 4.98321 4.63668
4.29862 3.97192 3.65909 3.36226 3.08285 2.84406 3.05746 3.28118 3.51437
3.75339 3.99249 4.22499 4.44469 4.64768 4.83399 5.00852 5.17961 5.35535
5.53984 5.73189 5.92672 6.11857 6.30253 6.4751 6.63421 6.77886 6.90883
7.0245 7.92971 7.84944 7.77404 7.70999 7.66378 7.63921 7.63434 7.64015
7.64212 7.62403 7.57208 7.47767 7.33784 7.15351 6.92688 6.66027 6.35718
6.02413 5.67051 5.30642 4.94046 4.579 4.22658 3.88675 3.56278 3.25792
2.97491 2.73718 2.94066 3.1605 3.3959 3.64204 3.89143 4.13568 4.36718
4.58084 4.77589 4.95676 5.13175 5.30932 5.49412 5.68558 5.87942 6.07024
6.25332 6.42526 6.58399 6.7285 6.85855 6.97449 7.95878 7.89195 7.82811
7.77128 7.72516 7.6914 7.66787 7.64815 7.62286 7.58221 7.51823 7.42582
7.30196 7.14354 6.94521 6.69992 6.40406 6.06311 5.69118 5.30435 4.91525
4.53193 4.15936 3.80115 3.46101 3.14335 2.85293 2.6142 2.8055 3.02163
3.2614 3.51773 3.78053 4.03938 4.28541 4.5127 4.71973 4.91015 5.09152
5.27197 5.45653 5.64558 5.83599 6.02323 6.20312 6.3725 6.52935 6.67261
6.80198 6.91769 8.00299 7.9529 7.90426 7.85855 7.81665 7.7781 7.74056
7.70001 7.65178 7.5919 7.51798 7.42895 7.32338 7.19602 7.03355 6.81472
6.52231 6.16053 5.7544 5.33127 4.90909 4.49681 4.09862 3.71721 3.356
3.02046 2.71805 2.4756 2.65241 2.86571 3.11291 3.3829 3.66179 3.93697
4.1987 4.44077 4.66129 4.86306 5.05249 5.2369 5.4214 5.6074 5.79314
5.97533 6.15057 6.31608 6.46997 6.61117 6.73926 6.85438 8.05923 8.02925
7.99979 7.96962 7.93657 7.89766 7.84982 7.79099 7.72096 7.64166 7.55675
7.47055 7.38579 7.29853 7.18854 7.01203 6.72276 6.32233 5.86105 5.38643
4.92165 4.47448 4.04675 3.63906 3.25354 2.89613 2.57741 2.32815 2.48882
2.70082 2.95862 3.24486 3.54086 3.83199 4.10832 4.36403 4.59729 4.81026
5.00815 5.19724 5.38239 5.56577 5.74691 5.92379 6.09391 6.25501 6.40543
6.54411 6.6706 6.78492 8.12393 8.11783 8.11241 8.10356 8.08533 8.05108
7.99581 7.91873 7.82421 7.72083 7.61925 7.5304 7.46354 7.42081 7.38084
7.27106 6.98998 6.53246 5.99815 5.46224 4.94952 4.46451 4.00619 3.57245
3.16321 2.78385 2.44751 2.18965 2.33444 2.5463 2.81537 3.11683 3.42728
3.7308 4.018 4.28393 4.52716 4.74941 4.95484 5.14858 5.33504 5.51673
5.69415 5.86634 6.03168 6.1885 6.33543 6.47153 6.59633 6.70979 8.19272
8.2147 8.23946 8.25982 8.26487 8.24199 8.18178 8.08359 7.95728 7.81988
7.69027 7.58599 7.52233 7.50844 7.52773 7.48747 7.22495 6.72289 6.13134
5.54403 4.98619 4.46437 3.97801 3.52286 3.09606 2.70134 2.35269 2.08848
2.22102 2.43138 2.70615 3.01516 3.33219 3.641 3.93295 4.20396 4.45297
4.68134 4.89228 5.08985 5.27779 5.4586 5.63333 5.80181 5.96314 6.1162
6.25997 6.39368 6.51691 6.62959 8.25972 8.31386 8.37582 8.43562 8.47588
8.47415 8.41191 8.28667 8.11616 7.92964 7.75593 7.61769 7.53158 7.50654
7.5257 7.49828 7.26525 6.79936 6.22328 5.61693 5.02248 4.46797 3.95982
3.49211 3.05889 2.66155 2.3125 2.04875 2.17576 2.3802 2.64888 2.95203
3.26383 3.56848 3.85779 4.12799 4.37803 4.60879 4.82259 5.02249 5.21146
5.39174 5.56456 5.73022 5.88837 6.03835 6.17944 6.3111 6.43299 6.54503
8.31681 8.40553 8.51077 8.62095 8.71134 8.74438 8.68437 8.52344 8.29192
8.03833 7.80385 7.6138 7.4808 7.40606 7.36813 7.29946 7.10388 6.74983
6.26053 5.66415 5.04154 4.46302 3.94408 3.47587 3.04915 2.66272 2.32551
2.06919 2.19754 2.39212 2.64356 2.9281 3.22349 3.51511 3.79486 4.05876
4.30534 4.53486 4.74876 4.94913 5.13819 5.31777 5.48904 5.65249 5.80813
5.95563 6.09455 6.22452 6.34532 6.45691 8.3535 8.47516 8.62483 8.79171
8.94479 9.02696 8.97468 8.76916 8.46068 8.12608 7.82076 7.56985 7.37889
7.24091 7.13441 7.01954 6.85182 6.59853 6.20274 5.63537 5.00975 4.43103
3.91968 3.46481 3.05568 2.68925 2.37034 2.12439 2.25823 2.44267 2.67281
2.93266 3.20533 3.47825 3.74363 3.99714 4.23674 4.46197 4.67345 4.87245
5.06046 5.23881 5.40849 5.57003 5.72358 5.86905 6.0062 6.13481 6.25476
6.36605 8.35826 8.5047 8.68991 8.90583 9.11841 9.25201 9.21018 8.959
8.57305 8.16099 7.79035 7.48353 7.23897 7.04434 6.88053 6.72378 6.54998
6.32512 5.97762 5.46994 4.89784 4.35876 3.87781 3.44932 3.06521 2.72236
2.4225 2.18644 2.32698 2.50374 2.71488 2.95087 3.20008 3.45262 3.70152
3.94236 4.1727 4.39147 4.59859 4.79462 4.98042 5.15688 5.3247 5.48435
5.63602 5.77973 5.91539 6.04289 6.16217 6.27328 8.32156 8.47783 8.67753
8.91443 9.15387 9.31146 9.27246 8.99365 8.56331 8.1069 7.69679 7.35285
7.06967 6.83297 6.62552 6.42913 6.22364 5.97815 5.64612 5.21075 4.72539
4.25246 3.8177 3.42387 3.06814 2.74883 2.46618 2.2386 2.38541 2.55734
2.75414 2.97055 3.19909 3.43252 3.66508 3.89269 4.11274 4.32378 4.52523
4.7171 4.89975 5.07365 5.23926 5.39688 5.54671 5.68879 5.82312 5.94965
6.06838 6.17938 8.23939 8.38725 8.57405 8.79195 9.00631 9.13847 9.08617
8.81231 8.39481 7.94631 7.53448 7.17934 6.87685 6.61438 6.377 6.14903
5.91294 5.64646 5.3265 4.94888 4.53939 4.13155 3.74538 3.38789 3.06034
2.76275 2.49503 2.27479 2.42686 2.59606 2.78286 2.9845 3.19636 3.4134
3.63116 3.84615 4.05586 4.25871 4.45379 4.64074 4.81955 4.99036 5.15338
5.3088 5.45672 5.5972 5.73026 5.85589 5.97412 6.08504 6.76264 6.64241
6.51334 6.37459 6.22507 6.06351 5.88941 5.70666 5.53071 5.38397 5.26417
5.14671 5.01703 4.87291 4.71608 4.54864 4.37228 4.1884 3.99825 3.80305
3.60407 3.40266 3.20017 2.9979 2.797 2.59842 2.40281 2.22862 2.40056
2.57351 2.74805 2.92458 3.10332 3.28424 3.46713 3.65162 3.83718 4.02314
4.2087 4.39292 4.57471 4.75283 4.92593 5.09265 5.25169 5.40199 5.54281
5.67378 5.79494 5.90664 6.88382 6.76455 6.63624 6.49815 6.34936 6.18893
6.01687 5.8374 5.66433 5.5159 5.39008 5.26656 5.13222 4.98433 4.82398
4.65286 4.47244 4.28398 4.08865 3.8877 3.68249 3.47452 3.26532 3.0564
2.84911 2.64456 2.4435 2.26474 2.43806 2.61259 2.78906 2.96797 3.14959
3.33396 3.5209 3.71002 3.90079 4.0925 4.28427 4.47502 4.66348 4.84814
5.02733 5.1993 5.36246 5.51548 5.65754 5.78837 5.90819 6.01761 7.00942
6.89176 6.76508 6.62888 6.48271 6.32639 6.16096 5.99074 5.82528 5.67456
5.53715 5.40141 5.25805 5.10376 4.9384 4.76275 4.57774 4.38432 4.1835
3.97648 3.7647 3.54979 3.33349 3.11753 2.90346 2.69257 2.48573 2.30213
2.47673 2.65276 2.83105 3.01223 3.19667 3.38445 3.57544 3.76928 3.96542
4.16313 4.36146 4.5592 4.75487 4.94665 5.13245 5.31008 5.4775 5.6331
5.77599 5.90603 6.02373 6.13009 7.1394 7.02388 6.89942 6.76585 6.62318
6.47188 6.31353 6.15168 5.99187 5.83869 5.69123 5.54381 5.39082 5.22926
5.05816 4.87747 4.68752 4.48886 4.2823 4.06897 3.85035 3.6282 3.40449
3.18116 2.96 2.74246 2.52956 2.34086 2.51669 2.69411 2.87412 3.05746
3.24458 3.43567 3.63063 3.82914 4.03068 4.23449 4.43958 4.64462 4.8479
5.04724 5.24009 5.42367 5.59541 5.75337 5.89659 6.02513 6.13995 6.24249
7.27365 7.16062 7.03872 6.90799 6.76878 6.62188 6.46884 6.3122 6.15501
5.99935 5.84473 5.68839 5.52713 5.35868 5.18178 4.99586 4.80078 4.59671
4.38425 4.16444 3.93878 3.7092 3.47786 3.24696 3.0185 2.79411 2.57493
2.38092 2.55795 2.73672 2.91833 3.10367 3.2933 3.48749 3.68622 3.88923
4.096 4.30581 4.51761 4.72997 4.94097 5.14806 5.34813 5.53777 5.71375
5.87376 6.01676 6.14316 6.25444 6.35261 7.41209 7.30177 7.1825 7.05447
6.91817 6.77447 6.6247 6.47061 6.31394 6.15577 5.99588 5.83286 5.66487
5.49025 5.30778 5.11662 4.91629 4.7067 4.48823 4.26182 4.02905 3.79197
3.55294 3.31441 3.07858 2.84725 2.62169 2.42222 2.60048 2.78053 2.96364
3.1508 3.34271 3.53972 3.7419 3.94905 4.16069 4.3761 4.59422 4.81353
5.03191 5.24647 5.45352 5.64896 5.82889 5.99053 6.13287 6.25671 6.36411
6.45773 7.55468 7.44722 7.33052 7.20486 7.07079 6.92912 6.78098 6.62762
6.47018 6.30936 6.1451 5.97668 5.80297 5.62274 5.43487 5.23844 5.03274
4.81749 4.5929 4.35987 4.11999 3.87547 3.62886 3.3828 3.1397 2.9015
2.66955 2.46459 2.64413 2.82545 3.00995 3.19875 3.39265 3.59211 3.7973
4.00805 4.22394 4.44424 4.66788 4.89327 5.11812 5.33923 5.55241 5.7529
5.93615 6.09899 6.24043 6.36167 6.4654 6.55483 7.70149 7.59698 7.48277
7.35913 7.22662 7.08603 6.93831 6.78447 6.62541 6.46166 6.29333 6.12003
5.94103 5.75539 5.5621 5.3602 5.1489 4.92777 4.69694 4.45726 4.21039
3.95862 3.70468 3.45138 3.20127 2.9564 2.71819 2.5078 2.68872 2.87133
3.05714 3.24738 3.44295 3.64444 3.85207 4.06572 4.285 4.50916 4.73711
4.96718 5.19696 5.42299 5.64074 5.84493 6.03055 6.19414 6.33475 6.45391
6.5548 6.64107 7.85266 7.75123 7.6394 7.51746 7.38598 7.24569 7.09751
6.94235 6.781 6.61399 6.44152 6.26339 6.07912 5.88793 5.68893 5.48117
5.26386 5.03652 4.79924 4.5529 4.29918 4.04046 3.7796 3.51948 3.26275
3.01155 2.76733 2.55164 2.73408 2.91804 3.1051 3.29659 3.49352 3.69654
3.90595 4.12167 4.34328 4.57002 4.80073 5.03366 5.2663 5.49505 5.71519
5.92124 6.108 6.27191 6.41207 6.53019 6.62965 6.71431 8.00838 7.91017
7.80068 7.68019 7.54927 7.4087 7.2594 7.10227 6.93811 6.76747 6.59062
6.40748 6.21767 6.02057 5.81536 5.60119 5.37731 5.14328 4.89927 4.64619
4.38576 4.12043 3.85309 3.58666 3.32381 3.06668 2.81676 2.59597 2.78012
2.96553 3.15381 3.34639 3.54434 3.74839 3.95888 4.17573 4.3985 4.62638
4.8581 5.09187 5.32506 5.55405 5.77417 5.98004 6.16662 6.33047 6.47073
6.58907 6.68878 6.77365 8.1688 8.07403 7.96688 7.84763 7.71691 7.57558
7.42464 7.26508 7.09771 6.92315 6.74168 6.55327 6.3576 6.15412 5.94211
5.72084 5.48969 5.2484 4.99724 4.73724 4.47018 4.19852 3.92512 3.65286
3.38437 3.12175 2.86646 2.64078 2.82686 3.01384 3.20337 3.3969 3.59557
3.80015 4.01098 4.22801 4.45074 4.67829 4.90932 5.14193 5.37347 5.60041
5.81829 6.02214 6.20735 6.3708 6.51167 6.63138 6.73289 6.81964 8.33398
8.24293 8.13816 8.01998 7.88914 7.74666 7.5937 7.43138 7.26062 7.08202
6.89586 6.70206 6.50029 6.29001 6.07061 5.84152 5.60235 5.35309 5.09424
4.82699 4.55322 4.27536 3.99619 3.71849 3.44475 3.17698 2.9166 2.68624
2.87447 3.06317 3.254 3.44839 3.64751 3.85214 4.06265 4.27894 4.50049
4.72636 4.95515 5.1849 5.413 5.63608 5.85007 6.05055 6.23353 6.39629
6.53803 6.65987 6.76423 6.8541 8.50371 8.41671 8.31437 8.19711 8.06585
7.92189 7.76667 7.60151 7.42742 7.245 7.05441 6.85544 6.64761 6.43033
6.20307 5.96548 5.71748 5.45942 5.19216 4.91714 4.63633 4.35217 4.06729
3.7843 3.50553 3.23284 2.96755 2.73264 2.92324 3.11384 3.30604 3.50124
3.70059 3.90488 4.11443 4.32917 4.54855 4.7716 4.9969 5.22252 5.44593
5.664 5.87312 6.06947 6.24971 6.41152 6.55415 6.67838 6.78609 6.87972
8.67734 8.59474 8.49489 8.37834 8.24635 8.10064 7.94307 7.77526 7.59835
7.41287 7.21872 7.01535 6.80199 6.57787 6.34248 6.09574 5.83801 5.57015
5.29352 5.0099 4.72145 4.43057 4.13976 3.8514 3.56758 3.29 3.01983
2.78037 2.97355 3.16621 3.35987 3.55587 3.7553 3.95891 4.16702 4.37955
4.59597 4.81534 5.03627 5.25692 5.47492 5.68743 5.89126 6.08322 6.26048
6.42114 6.56446 6.69094 6.80197 6.89948 8.85349 8.7756 8.67821 8.56208
8.42899 8.28131 8.12151 7.95167 7.77309 7.58609 7.39013 7.18404 6.96642
6.73613 6.4926 6.23607 5.96751 5.68854 5.40121 5.1078 4.81072 4.51238
4.21511 3.921 3.63189 3.34922 3.07402 2.82991 3.02581 3.22067 3.41587
3.61268 3.8121 4.01481 4.22114 4.431 4.64392 4.85904 5.07508 5.29033
5.50264 5.70945 5.90801 6.09558 6.26984 6.42916 6.57285 6.70119 6.81517
6.91625 9.02964 8.95669 8.86156 8.74539 8.6107 8.46085 8.29924 8.12859
7.95038 7.76462 7.56997 7.36413 7.14463 6.90955 6.65813 6.39102 6.11013
5.81819 5.51826 5.21337 4.90628 4.59941 4.29485 3.99438 3.69949 3.41134
3.13077 2.88171 3.08042 3.27755 3.47437 3.67201 3.87139 4.07311 4.27748
4.48444 4.69359 4.9042 5.11514 5.32489 5.53152 5.73278 5.92626 6.10963
6.28091 6.43872 6.58242 6.71208 6.82841 6.9325 9.20168 9.13363 9.0403
8.92335 8.78641 8.63424 8.47158 8.30211 8.12762 7.94758 7.75933 7.55872
7.34135 7.10384 6.845 6.56612 6.27059 5.96289 5.64767 5.32897 5.01004
4.69325 4.38038 4.07274 3.77138 3.47715 3.19067 2.93622 3.13773 3.33713
3.53558 3.73408 3.93343 4.13419 4.33661 4.54066 4.74605 4.95216 5.15806
5.36245 5.56362 5.7596 5.94829 6.12766 6.29601 6.45212 6.59539 6.7258
6.84379 6.95018 9.36343 9.29979 9.20736 9.08851 8.9484 8.79373 8.6312
8.46591 8.30017 8.13274 7.95894 7.77156 7.56279 7.32664 7.061 6.76825
6.45429 6.12657 5.79214 5.45652 5.12347 4.7952 4.47289 4.1572 3.84857
3.54747 3.25433 2.99383 3.19801 3.39957 3.59957 3.79894 3.99835 4.19827
4.3989 4.60025 4.80209 5.00396 5.20511 5.40444 5.60048 5.79152 5.97569
6.15122 6.31663 6.47084 6.61327 6.74381 6.86275 6.97068 9.5063 9.44588
9.35281 9.23042 9.08583 8.92837 8.76743 8.61033 8.4604 8.31569 8.16862
8.00705 7.81726 7.58838 7.31649 7.00596 6.66729 6.31293 5.95372 5.59717
5.24743 4.90613 4.57341 4.24886 3.93212 3.62318 3.32237 3.0549 3.26143
3.46487 3.66627 3.86646 4.06601 4.26529 4.46443 4.66344 4.86214 5.0602
5.25703 5.4517 5.643 5.82941 6.00931 6.18114 6.34357 6.49565 6.63682
6.76691 6.88611 6.99483 9.61956 9.56012 9.46405 9.33579 9.1848 9.02375
8.86572 8.72139 8.59628 8.48826 8.38605 8.26986 8.11565 7.90329 7.6252
7.28963 6.91573 6.52469 6.13308 5.75076 5.38178 5.02639 4.68284 4.349
4.02332 3.70534 3.39545 3.11973 3.32802 3.53286 3.73535 3.93625 4.13602
4.33488 4.5329 4.73002 4.9261 5.12087 5.31387 5.50436 5.6913 5.87341
6.04925 6.21746 6.37686 6.5266 6.66613 6.79527 6.9141 7.02291 9.69146
9.62954 9.5271 9.38969 9.22934 9.06258 8.90738 8.77964 8.68923 8.63558
8.6037 8.56263 8.47058 8.28943 8.00395 7.63017 7.20403 6.76175 6.32808
5.91493 5.52501 5.15572 4.80216 4.45937 4.12406 3.79538 3.47437 3.18853
3.39758 3.60305 3.80615 4.00756 4.20759 4.40628 4.60355 4.79926 4.99323
5.18526 5.37496 5.56173 5.74472 5.92283 6.09483 6.25952 6.41588 6.56311
6.70072 6.82848 6.94642 7.05472 9.71167 9.64254 9.52929 9.37828 9.20381
9.02648 8.87033 8.75913 8.71101 8.73098 8.80216 8.87915 8.89082 8.76437
8.46801 8.03373 7.52996 7.01777 6.53175 6.08401 5.67357 5.29309 4.93264
4.58272 4.23724 3.89532 3.55994 3.26121 3.46945 3.67447 3.87755 4.07924
4.27956 4.47829 4.67516 4.86987 5.06223 5.252 5.43888 5.62239 5.80182
5.97626 6.14466 6.30601 6.45937 6.60404 6.73955 6.86565 6.98231 7.08965