# vtk DataFile Version 3.0
vtk output
ASCII
DATASET RECTILINEAR_GRID
FIELD FieldData 2
base_index 1 3 int
0 0 0
avtOriginalBounds 1 6 double
-10 10 -10 10 -10 10
DIMENSIONS 50 50 50
X_COORDINATES 50 float
-10 -9.59184 -9.18367 -8.77551 -8.36735 -7.95918 -7.55102 -7.14286 -6.73469
-6.32653 -5.91837 -5.5102 -5.10204 -4.69388 -4.28571 -3.87755 -3.46939 -3.06122
-2.65306 -2.2449 -1.83673 -1.42857 -1.02041 -0.612245 -0.204082 0.204082 0.612245
1.02041 1.42857 1.83673 2.2449 2.65306 3.06122 3.46939 3.87755 4.28572
4.69388 5.10204 5.5102 5.91837 6.32653 6.73469 7.14286 7.55102 7.95918
8.36735 8.77551 9.18367 9.59184 10
Y_COORDINATES 50 float
-10 -9.59184 -9.18367 -8.77551 -8.36735 -7.95918 -7.55102 -7.14286 -6.73469
-6.32653 -5.91837 -5.5102 -5.10204 -4.69388 -4.28571 -3.87755 -3.46939 -3.06122
-2.65306 -2.2449 -1.83673 -1.42857 -1.02041 -0.612245 -0.204082 0.204082 0.612245
1.02041 1.42857 1.83673 2.2449 2.65306 3.06122 3.46939 3.87755 4.28572
4.69388 5.10204 5.5102 5.91837 6.32653 6.73469 7.14286 7.55102 7.95918
8.36735 8.77551 9.18367 9.59184 10
Z_COORDINATES 50 float
-10 -9.59184 -9.18367 -8.77551 -8.36735 -7.95918 -7.55102 -7.14286 -6.73469
-6.32653 -5.91837 -5.5102 -5.10204 -4.69388 -4.28571 -3.87755 -3.46939 -3.06122
-2.65306 -2.2449 -1.83673 -1.42857 -1.02041 -0.612245 -0.204082 0.204082 0.612245
1.02041 1.42857 1.83673 2.2449 2.65306 3.06122 3.46939 3.87755 4.28572
4.69388 5.10204 5.5102 5.91837 6.32653 6.73469 7.14286 7.55102 7.95918
8.36735 8.77551 9.18367 9.59184 10
CELL_DATA 117649
POINT_DATA 125000
SCALARS temp float
LOOKUP_TABLE default
2.91948 2.77089 2.6174 2.45906 2.29599 2.16352 2.34348 2.52253 2.70496
2.89731 3.10134 3.31194 3.52337 3.73249 3.93794 4.13905 4.33533 4.52633
4.71166 4.8911 5.06461 5.23245 5.39521 5.55377 5.7093 5.86313 6.01667
6.1713 6.32822 6.4884 6.65247 6.82072 6.99308 7.16917 7.34835 7.52974
7.71228 7.89476 8.0758 8.25389 8.42738 8.59452 8.75352 8.90267 9.0405
9.1659 9.27822 9.37735 9.46365 9.53786 2.9704 2.82047 2.66542 2.50535
2.3404 2.20667 2.39192 2.57675 2.76507 2.96255 3.17071 3.38516 3.60067
3.81414 4.02403 4.22951 4.42988 4.62453 4.81291 4.99466 5.16969 5.33824
5.50096 5.65886 5.81328 5.96577 6.11799 6.27155 6.42788 6.58812 6.75304
6.92302 7.09805 7.27776 7.46148 7.64827 7.83699 8.02629 8.21463 8.40028
8.58127 8.7555 8.92075 9.07492 9.21618 9.34318 9.45527 9.55245 9.63535
9.70505 3.0231 2.87199 2.71562 2.55413 2.38777 2.25348 2.44565 2.63841
2.83462 3.03793 3.24936 3.46609 3.68429 3.90114 4.11492 4.32447 4.52882
4.72709 4.91854 5.10262 5.27915 5.44835 5.61091 5.76797 5.92106 6.07197
6.2226 6.3748 6.53023 6.69022 6.85571 7.02717 7.20465 7.38783 7.576
7.7682 7.96321 8.15956 8.35554 8.54917 8.73817 8.92 9.09196 9.25141
9.39611 9.52447 9.63578 9.73027 9.80892 9.87325 3.07751 2.92538 2.76785
2.60512 2.43753 2.3029 2.50255 2.70362 2.90788 3.11731 3.3324 3.55158
3.77232 3.99232 4.20979 4.4233 4.63159 4.83351 5.02805 5.21451 5.39255
5.56238 5.72472 5.88086 6.0325 6.18167 6.33051 6.48113 6.6354 6.79486
6.96059 7.13321 7.31285 7.4992 7.69159 7.88903 8.09022 8.29361 8.49733
8.69915 8.89644 9.08617 9.26509 9.42996 9.57801 9.70737 9.81734 9.9084
9.98202 10.0402 3.13358 2.98051 2.82187 2.65793 2.48905 2.35391 2.56086
2.76971 2.98142 3.19696 3.41646 3.639 3.86291 4.08635 4.30762 4.52515
4.73742 4.94302 5.14071 5.32959 5.50919 5.67968 5.84184 5.99705 6.14723
6.29461 6.44157 6.59046 6.74337 6.90204 7.0677 7.24111 7.42248 7.6116
7.80779 8.01006 8.21708 8.4272 8.6384 8.84823 9.05369 9.25128 9.43711
9.60727 9.75843 9.88838 9.99646 10.0835 10.1515 10.2031 3.19124 3.03727
2.87751 2.71225 2.54189 2.40591 2.61973 2.8357 3.05425 3.27579 3.50026
3.72698 3.95476 4.18212 4.40744 4.62909 4.84538 5.05469 5.25557 5.4469
5.62813 5.79936 5.96142 6.11582 6.26464 6.41031 6.55544 6.70258 6.85401
7.01166 7.17693 7.35071 7.53334 7.72464 7.92402 8.13047 8.34262 8.55877
8.77676 8.99391 9.20692 9.41178 9.60399 9.77896 9.93275 10.0629 10.1686
10.2513 10.3136 10.3586 3.25042 3.09556 2.93461 2.76789 2.5958 2.45863
2.67896 2.90152 3.12647 3.3539 3.58362 3.81505 4.04722 4.27885 4.50843
4.73427 4.95457 5.16755 5.37156 5.56536 5.74827 5.92036 6.0825 6.2363
6.384 6.52819 6.67165 6.81711 6.96704 7.12351 7.2881 7.46181 7.64511
7.83792 8.03967 8.24937 8.46564 8.68668 8.91024 9.13345 9.35271 9.56359
9.76105 9.93987 10.0956 10.2254 10.3287 10.4072 10.4641 10.5031 3.31109
3.15532 2.99311 2.82477 2.6507 2.51207 2.73861 2.96742 3.19849 3.4317
3.66679 3.90319 4.14003 4.37613 4.61002 4.83999 5.06418 5.28067 5.4877
5.6839 5.86851 6.0416 6.20406 6.35759 6.50452 6.64758 6.78967 6.93367
7.08216 7.23736 7.40099 7.57419 7.75754 7.95103 8.15417 8.36596 8.585
8.80941 9.03682 9.26422 9.48777 9.70273 9.90365 10.0849 10.2415 10.3706
10.4717 10.5467 10.5991 10.6334 3.37323 3.21655 3.05299 2.88288 2.70663
2.56628 2.79887 3.03373 3.27073 3.50966 3.75014 3.99162 4.23323 4.47382
4.71194 4.94587 5.17369 5.39343 5.60323 5.80169 5.98801 6.16223 6.32528
6.47892 6.62553 6.76791 6.90905 7.05188 7.19909 7.35301 7.51545 7.6877
7.87044 8.06374 8.26714 8.47967 8.69985 8.92576 9.15492 9.38417 9.60953
9.82608 10.0281 10.2099 10.3663 10.4944 10.5936 10.6662 10.7158 10.7471
3.4368 3.27921 3.11424 2.94224 2.76363 2.62138 2.85992 3.10074 3.34359
3.58819 3.8341 4.08069 4.32709 4.57212 4.81431 5.05193 5.28303 5.50563
5.71789 5.91838 6.10633 6.28179 6.44572 6.59987 6.74665 6.88887 7.02953
7.17156 7.31773 7.4704 7.63149 7.80238 7.98383 8.17601 8.37848 8.59025
8.80982 9.03518 9.26375 9.49228 9.71671 9.9321 10.1328 10.3131 10.4681
10.5948 10.6928 10.7643 10.8129 10.8431 3.50174 3.34327 3.17684 3.00284
2.82173 2.67742 2.92191 3.16867 3.41739 3.66771 3.91912 4.17092 4.42215
4.67156 4.91765 5.15866 5.39266 5.6177 5.83201 6.03424 6.22367 6.40043
6.56545 6.7205 6.86793 7.01049 7.15114 7.29279 7.43817 7.58969 7.7493
7.91845 8.09798 8.2881 8.48841 8.69792 8.91507 9.1378 9.36346 9.58875
9.80962 10.0213 10.2183 10.3953 10.5477 10.6728 10.7702 10.8418 10.8911
10.9222 3.56792 3.4086 3.24069 3.0646 2.88087 2.73441 2.98489 3.23765
3.49236 3.74859 4.00573 4.26296 4.51919 4.77306 5.02297 5.26714 5.50366
5.7307 5.94662 6.15022 6.34093 6.51892 6.68517 6.84139 6.98986 7.13321
7.2743 7.41594 7.5608 7.71126 7.8693 8.03638 8.21338 8.40057 8.59755
8.80333 9.01636 9.23453 9.45516 9.67498 9.89005 10.0958 10.2872 10.4595
10.6084 10.7317 10.8289 10.9016 10.9528 10.9861 3.63505 3.47496 3.30555
3.12731 2.94087 2.79219 3.04875 3.30768 3.56865 3.83115 4.09447 4.35761
4.61927 4.87789 5.13175 5.37898 5.61775 5.84637 6.06343 6.26797 6.4596
6.63865 6.80612 6.96365 7.1134 7.25787 7.39972 7.54164 7.6862 7.83571
7.99209 8.1568 8.33074 8.51417 8.70676 8.90752 9.11492 9.32686 9.54073
9.75333 9.96091 10.1592 10.3438 10.5103 10.6552 10.7764 10.8735 10.9477
11.0015 11.0381 3.70269 3.54189 3.37097 3.19052 3.00132 2.85041 3.11317
3.37855 3.64621 3.91562 4.1859 4.4558 4.72371 4.98775 5.24594 5.49634
5.73718 5.96697 6.18465 6.38958 6.5817 6.76147 6.92997 7.08878 7.23988
7.3856 7.52839 7.67078 7.81516 7.96373 8.11835 8.28042 8.45082 8.62983
8.81713 9.01178 9.21231 9.41673 9.62252 9.82666 10.0257 10.2156 10.3926
10.5529 10.6933 10.8122 10.9091 10.9848 11.0414 11.0814 3.77004 3.6086
3.43617 3.25347 3.06148 2.90838 3.1775 3.44969 3.72474 4.00205 4.28055
4.55861 4.83413 5.10473 5.36804 5.62192 5.8647 6.09522 6.31287 6.5175
6.70945 6.88945 7.05862 7.21848 7.37083 7.51776 7.66149 7.80433 7.9485
8.09607 8.24878 8.40796 8.57443 8.74847 8.92978 9.1175 9.31029 9.50627
9.70312 9.89804 10.0879 10.2691 10.4382 10.5919 10.7278 10.844 10.9403
11.0172 11.0763 11.1197 3.83594 3.6739 3.49993 3.31493 3.12015 2.96498
3.24059 3.52011 3.8035 4.09019 4.37882 4.66721 4.95249 5.23145 5.50108
5.75894 6.00351 6.23411 6.45082 6.65421 6.84514 7.02467 7.19402 7.35457
7.50789 7.65579 7.80023 7.9433 8.08705 8.23339 8.38396 8.53998 8.7022
8.87088 9.04575 9.22605 9.41054 9.59756 9.78502 9.9704 10.1508 10.3232
10.4844 10.6316 10.7626 10.876 10.9712 11.0488 11.1098 11.1559 3.89866
3.73602 3.56044 3.37307 3.17555 3.01849 3.30068 3.58813 3.88118 4.17935
4.48094 4.78292 5.08117 5.37116 5.6488 5.91125 6.1572 6.3868 6.60121
6.802 6.9908 7.16904 7.33799 7.49879 7.6527 7.80116 7.94586 8.08867
8.23152 8.37621 8.52427 8.67682 8.83455 8.99765 9.16586 9.33851 9.51452
9.69243 9.8704 10.0462 10.2173 10.3809 10.5343 10.675 10.801 10.9112
11.0049 11.0824 11.1446 11.1926 3.9559 3.79253 3.61519 3.42536 3.22515
3.06647 3.35513 3.65115 3.95556 4.26813 4.58673 4.90707 5.22304 5.5279
5.81584 6.08334 6.32966 6.55638 6.76636 6.9627 7.148 7.3241 7.49214
7.65285 7.80694 7.95538 8.09959 8.24132 8.38246 8.52479 8.6698 8.81852
8.97153 9.12896 9.29052 9.45559 9.62323 9.79218 9.96085 10.1273 10.2893
10.4443 10.5901 10.7243 10.8452 10.9518 11.0433 11.12 11.1825 11.2317
4.00472 3.84034 3.66095 3.46848 3.26562 3.10558 3.40025 3.70538 4.02313
4.35392 4.69522 5.04083 5.38148 5.7067 6.0078 6.28035 6.52484 6.74544
6.9478 7.13722 7.31753 7.49084 7.65785 7.81844 7.9724 8.1201 8.2627
8.40202 8.54015 8.67905 8.82022 8.96464 9.11273 9.2645 9.41959 9.57738
9.73701 9.8974 10.0572 10.2146 10.3678 10.5146 10.6529 10.7807 10.8963
10.9989 11.0877 11.1629 11.2248 11.2741 4.04174 3.87584 3.69397 3.49851
3.2929 3.13162 3.43116 3.74541 4.0785 4.43221 4.80381 5.18454 5.55995
5.91329 6.23099 6.50748 6.74594 6.9552 7.1454 7.32489 7.49892 7.66954
7.83631 7.99747 8.1513 8.29728 8.43651 8.57135 8.70453 8.83841 8.97467
9.11417 9.25714 9.40335 9.55229 9.70325 9.85542 10.0078 10.1592 10.3082
10.4531 10.5919 10.7229 10.8442 10.9545 11.0527 11.1384 11.2113 11.2719
11.3205 4.06361 3.8954 3.71034 3.51131 3.30255 3.13971 3.44172 3.76387
4.11351 4.49514 4.90664 5.33591 5.76046 6.15276 6.49096 6.76826 6.9935
7.18375 7.356 7.52256 7.68997 7.85956 8.02866 8.19249 8.34666 8.48945
8.62247 8.74955 8.87484 9.00153 9.13149 9.26536 9.40302 9.54384 9.68703
9.83173 9.97706 10.1221 10.2658 10.4068 10.5438 10.6751 10.799 10.9141
11.0189 11.1126 11.1946 11.2648 11.3233 11.3706 4.0676 3.89603 3.70682
3.50325 3.29036 3.12473 3.42472 3.75106 4.11616 4.52954 4.99149 5.48627
5.9793 6.42512 6.78787 7.06 7.26155 7.42324 7.57159 7.72335 7.88593
8.05901 8.23612 8.40712 8.56282 8.69984 8.82179 8.93595 9.04918 9.1659
9.28797 9.41554 9.54777 9.68348 9.82142 9.96047 10.0996 10.238 10.3746
10.5084 10.6381 10.7623 10.8795 10.9884 11.0879 11.177 11.2552 11.3223
11.3783 11.4236 4.05243 3.87633 3.68177 3.47224 3.25335 3.08219 3.37254
3.69503 4.0696 4.51441 5.03536 5.61356 6.19769 6.71449 7.10573 7.36481
7.53142 7.65638 7.77753 7.9157 8.07864 8.26389 8.45949 8.64605 8.80532
8.93164 9.03421 9.12773 9.22356 9.32726 9.44008 9.56096 9.68795 9.819
9.95229 10.0864 10.2201 10.3525 10.4828 10.6099 10.733 10.8506 10.9617
11.0649 11.1592 11.2439 11.3183 11.3821 11.4354 11.4784 4.01889 3.83718
3.63607 3.41882 3.19111 3.0097 3.27867 3.58262 3.95228 4.4198 5.00115
5.67485 6.36837 6.97135 7.39554 7.63806 7.76631 7.85492 7.95254 8.08323
8.2554 8.46568 8.6961 8.9122 9.07781 9.18422 9.25445 9.3175 9.39055
9.47907 9.58221 9.69679 9.81924 9.9464 10.0758 10.2056 10.3346 10.4618
10.5864 10.7077 10.8248 10.9367 11.0422 11.1404 11.2302 11.3107 11.3816
11.4423 11.4929 11.5334 3.96997 3.78207 3.57362 3.34707 3.10727 2.90918
3.1409 3.40317 3.74155 4.21096 4.84326 5.61114 6.41494 7.10648 7.57039
7.80931 7.9162 7.98511 8.07292 8.20683 8.39807 8.64609 8.92981 9.19366
9.36851 9.44154 9.46489 9.48988 9.53822 9.61231 9.7074 9.81736 9.93671
10.0612 10.1876 10.314 10.439 10.5617 10.6815 10.7978 10.9098 11.0168
11.1178 11.2117 11.2977 11.3749 11.4427 11.5007 11.5488 11.5869 3.91047
3.71669 3.50119 3.26499 3.01093 2.79003 2.96748 3.15782 3.42547 3.86448
4.53306 5.38489 6.27955 7.04284 7.55379 7.82031 7.94317 8.02288 8.12115
8.2695 8.48435 8.77161 9.11261 9.43198 9.61727 9.6516 9.62796 9.62048
9.651 9.71656 9.80806 9.91663 10.0352 10.1586 10.2833 10.4072 10.529
10.6481 10.7638 10.876 10.984 11.0872 11.1847 11.2756 11.3588 11.4336
11.4992 11.5551 11.6011 11.6372 3.84602 3.64788 3.42734 3.18369 2.9169
2.67206 2.78654 2.87966 3.03429 3.409 4.10931 5.0431 6.00421 6.81014
7.36391 7.68117 7.85207 7.96925 8.0945 8.26305 8.49571 8.80282 9.16875
9.51283 9.70618 9.73087 9.69629 9.6839 9.71445 9.7826 9.87747 9.98909
10.1098 10.234 10.3584 10.4809 10.6004 10.7166 10.8292 10.9383 11.0435
11.1442 11.2397 11.3288 11.4107 11.4842 11.5487 11.6034 11.648 11.6825
3.78201 3.58222 3.36056 3.11505 2.84313 2.58418 2.65166 2.65985 2.69994
3.005 3.74251 4.74849 5.73979 6.54589 7.11275 7.46924 7.68967 7.85026
8.00644 8.19289 8.43045 8.72778 9.06849 9.3855 9.58244 9.64463 9.65156
9.67021 9.72219 9.80545 9.91121 10.0306 10.1564 10.2836 10.409 10.5311
10.6492 10.7634 10.874 10.9811 11.0848 11.1846 11.2796 11.3687 11.4507
11.5245 11.589 11.6435 11.6877 11.7213 3.72251 3.52448 3.3069 3.06769
2.80376 2.55263 2.62186 2.62587 2.65415 2.95765 3.71206 4.71005 5.64659
6.38426 6.91056 7.26618 7.51048 7.70039 7.87934 8.07608 8.30732 8.57739
8.87062 9.14272 9.34035 9.45369 9.52335 9.59186 9.6786 9.78567 9.90796
10.0388 10.1722 10.3041 10.4319 10.5546 10.6722 10.7853 10.8947 11.0012
11.1049 11.2054 11.3017 11.3926 11.4766 11.5522 11.6183 11.6739 11.7186
11.7522 3.66977 3.4767 3.26818 3.04341 2.80118 2.58231 2.71139 2.81716
2.98332 3.38944 4.12411 4.99824 5.77389 6.36767 6.79858 7.11066 7.34729
7.54564 7.73441 7.93326 8.1531 8.39509 8.64749 8.88534 9.08269 9.23368
9.3558 9.47159 9.59451 9.72787 9.86905 10.0133 10.1561 10.294 10.4252
10.5493 10.6671 10.7798 10.889 10.996 11.1012 11.2043 11.304 11.3988
11.4868 11.5661 11.6352 11.6932 11.7394 11.7738 3.62418 3.43824 3.24192
3.03654 2.82397 2.65062 2.86862 3.12023 3.47398 4.01533 4.72848 5.44497
6.01848 6.43697 6.74889 6.99613 7.20587 7.39748 7.58573 7.78109 7.9891
8.20927 8.43418 8.65089 8.84728 9.02019 9.17678 9.32783 9.48086 9.63804
9.79749 9.95551 10.1083 10.253 10.3883 10.5144 10.6327 10.7454 10.8552
10.9638 11.0721 11.1797 11.2851 11.386 11.48 11.5649 11.6387 11.7004
11.7493 11.7853 3.58497 3.40673 3.22308 3.03729 2.85383 2.72316 3.02017
3.38833 3.87479 4.50095 5.19027 5.785 6.20198 6.48421 6.7015 6.89346
7.07611 7.25668 7.44003 7.62975 7.82748 8.03206 8.23917 8.4425 8.63668
8.82037 8.99671 9.17056 9.34536 9.52153 9.69686 9.86774 10.0305 10.1824
10.3222 10.4504 10.5693 10.6823 10.7928 10.904 11.017 11.1312 11.2445
11.3539 11.456 11.5482 11.6283 11.6949 11.7474 11.7858 3.55103 3.37964
3.20669 3.03672 2.87537 2.77422 3.11958 3.54659 4.0809 4.71095 5.3482
5.86358 6.20716 6.43269 6.61008 6.7771 6.94638 7.12056 7.29993 7.48449
7.6739 7.86693 8.06134 8.25446 8.44443 8.63128 8.81686 9.00347 9.19224
9.38222 9.57047 9.75295 9.9255 10.0849 10.2295 10.36 10.4792 10.592
10.7034 10.8178 10.9368 11.0596 11.1831 11.303 11.4153 11.5165 11.604
11.6765 11.7333 11.7747 3.52173 3.35552 3.19006 3.03033 2.88189 2.79524
3.15812 3.59502 4.11448 4.69266 5.2575 5.72119 6.05084 6.28228 6.46781
6.64032 6.81289 6.98862 7.16736 7.34833 7.53083 7.71414 7.89756 8.08064
8.26363 8.44777 8.63489 8.82652 9.02285 9.22216 9.4208 9.61395 9.79646
9.96401 10.1141 10.2471 10.3665 10.4785 10.5906 10.7085 10.8347 10.9678
11.1033 11.2357 11.3595 11.4706 11.5664 11.6453 11.707 11.7518 3.49733
3.33463 3.17352 3.0188 2.87533 2.79174 3.15154 3.57136 4.04972 4.56239
5.05964 5.48765 5.82355 6.08359 6.29903 6.49409 6.68112 6.86462 7.04558
7.224 7.39981 7.57326 7.74494 7.91603 8.08837 8.26443 8.44678 8.63726
8.83611 9.04136 9.24884 9.45268 9.64634 9.82382 9.98112 10.1177 10.2376
10.3488 10.4611 10.5827 10.7169 10.8613 11.0099 11.1553 11.2911 11.4125
11.5166 11.602 11.6685 11.7169 3.47882 3.31862 3.15977 3.00654 2.86295
2.77592 3.12312 3.51724 3.95272 4.4097 4.85578 5.25843 5.6012 5.8884
6.13535 6.35678 6.56202 6.75562 6.93953 7.11482 7.28253 7.44405 7.60123
7.75662 7.91351 8.07578 8.24736 8.43126 8.62856 8.83755 9.0536 9.2696
9.4771 9.66784 9.83569 9.97874 10.101 10.2122 10.3251 10.4505 10.5925
10.7479 10.909 11.0668 11.2136 11.3443 11.4559 11.5472 11.6182 11.6699
3.46749 3.30967 3.15234 2.99911 2.85314 2.76013 3.09284 3.46238 3.86262
4.27859 4.68922 5.07409 5.42089 5.728 6.00066 6.24557 6.46774 6.67028
6.85532 7.02487 7.18118 7.32682 7.46489 7.59915 7.73436 7.87611 8.03038
8.20226 8.3945 8.60613 8.832 9.06332 9.28913 9.49835 9.68216 9.83675
9.96561 10.0799 10.195 10.3242 10.4728 10.6373 10.8082 10.9755 11.1308
11.2686 11.386 11.4818 11.5564 11.6109 3.46423 3.30944 3.15404 3.00084
2.85218 2.75302 3.07326 3.42291 3.79675 4.18408 4.57101 4.94414 5.29395
5.61596 5.90913 6.1736 6.40958 6.61773 6.79984 6.95888 7.09848 7.22252
7.33515 7.44122 7.54686 7.65979 7.78888 7.94257 8.1264 8.34062 8.57921
8.83084 9.08119 9.31575 9.5227 9.69601 9.83819 9.9609 10.0813 10.2148
10.368 10.5375 10.7137 10.8859 11.0456 11.1872 11.3078 11.4065 11.4836
11.5403 3.46925 3.31855 3.16604 3.01371 2.86303 2.7586 3.06983 3.40485
3.75982 4.12758 4.49916 4.86579 5.22012 5.55626 5.86861 6.15111 6.39829
6.60755 6.78054 6.92199 7.03759 7.13268 7.21221 7.28165 7.34824 7.42209
7.51615 7.64407 7.81595 8.03385 8.29 8.56884 8.85131 9.11884 9.35663
9.55658 9.71994 9.85795 9.9882 10.127 10.2825 10.4524 10.6282 10.7999
10.9593 11.1011 11.2222 11.3218 11.4 11.4581 3.48197 3.33652 3.18806
3.03767 2.88596 2.77745 3.08332 3.40842 3.75035 4.10494 4.46717 4.83205
5.19459 5.54851 5.88413 6.18774 6.44546 6.65031 6.80526 6.91929 7.00167
7.05936 7.09751 7.12129 7.13832 7.16108 7.20796 7.30064 7.45671 7.68086
7.96166 8.27638 8.59906 8.9065 9.18144 9.41442 9.60565 9.76526 9.9099
10.0558 10.2121 10.3789 10.5497 10.7162 10.8713 11.0099 11.1291 11.2278
11.306 11.3648 3.50131 3.36228 3.21907 3.07178 2.92014 2.80876 3.11255
3.43153 3.76458 4.11019 4.46702 4.83408 5.20983 5.58928 5.95898 6.29376
6.56448 6.75716 6.88085 6.95441 6.9929 7.00465 6.99387 6.96404 6.92176
6.88113 6.8672 6.91356 7.04983 7.28451 7.59916 7.95915 8.32898 8.68069
8.99566 9.26437 9.48672 9.67159 9.83392 9.9889 10.1464 10.3087 10.4722
10.631 10.7792 10.9124 11.0279 11.1244 11.2017 11.2608 3.52591 3.39457
3.25798 3.1152 2.96494 2.85193 3.15648 3.47207 3.79861 4.13712 4.49005
4.86116 5.25423 5.66889 6.09029 6.47598 6.76623 6.93463 7.00839 7.02636
7.01079 6.96986 6.90535 6.81761 6.71042 6.59788 6.51187 6.50179 6.61503
6.86538 7.22251 7.63439 8.05392 8.44922 8.80201 9.10426 9.35647 9.56659
9.74763 9.91325 10.0734 10.2321 10.3886 10.5393 10.6799 10.8069 10.9179
11.0115 11.0876 11.1467 3.55422 3.43202 3.30384 3.16755 3.02052 2.90733
3.21518 3.529 3.84941 4.17999 4.52719 4.9001 5.30954 5.76387 6.25321
6.71521 7.03517 7.16511 7.17231 7.12525 7.05049 6.95433 6.83614 6.69283
6.52412 6.34207 6.18366 6.11499 6.2047 6.47259 6.87281 7.33315 7.79557
8.22612 8.60852 8.93717 9.21373 9.44558 9.64385 9.82044 9.98475 10.142
10.2933 10.4371 10.5709 10.692 10.7986 10.8894 10.9642 11.0232 3.58431
3.47297 3.35559 3.22863 3.08759 2.97627 3.28996 3.60247 3.91488 4.23361
4.56939 4.93628 5.35136 5.83194 6.37766 6.91508 7.27166 7.37398 7.33158
7.23195 7.10272 6.95412 6.78807 6.59992 6.38562 6.15411 5.94412 5.83247
5.90324 6.18046 6.60618 7.09396 7.57928 8.0281 8.42629 8.77033 9.06274
9.3102 9.52209 9.70842 9.87759 10.0351 10.1833 10.3223 10.4508 10.5671
10.6699 10.7584 10.8322 10.8915 3.61363 3.51489 3.41112 3.29735 3.16642
3.06011 3.3825 3.69297 3.99305 4.29303 4.6084 4.9569 5.35795 5.83046
6.37594 6.92506 7.31222 7.45786 7.44152 7.32703 7.15442 6.95972 6.75701
6.54231 6.30897 6.06345 5.84257 5.72151 5.78295 6.05037 6.46638 6.94542
7.4238 7.86822 8.26527 8.61184 8.91021 9.16591 9.38647 9.57994 9.75346
9.91219 10.059 10.1949 10.3197 10.4326 10.5327 10.6195 10.6927 10.7525
3.6386 3.55365 3.46608 3.36979 3.25438 3.15769 3.49206 3.79849 4.07952
4.35188 4.63688 4.95437 5.32182 5.75242 6.24244 6.74144 7.14981 7.40353
7.48606 7.38863 7.18157 6.952 6.73016 6.51189 6.28887 6.06612 5.87542
5.77859 5.84084 6.08066 6.4534 6.88911 7.33204 7.75052 8.13043 8.4674
8.76228 9.01889 9.24275 9.44001 9.61634 9.77621 9.92249 10.0566 10.1791
10.2897 10.388 10.4738 10.547 10.6078 3.65465 3.58309 3.51253 3.43654
3.34159 3.25974 3.60879 3.908 4.16255 4.39939 4.64692 4.92577 5.24932
5.62414 6.04443 6.48293 6.89612 7.23757 7.41695 7.35108 7.13628 6.90218
6.68852 6.49118 6.30235 6.12656 5.9887 5.93274 6.00213 6.20916 6.52479
6.89985 7.29073 7.66926 8.02069 8.33886 8.62266 8.87392 9.09618 9.29375
9.47085 9.63104 9.77688 9.90993 10.0309 10.1401 10.2374 10.3228 10.3964
10.4585 3.65674 3.59558 3.53904 3.48115 3.40645 3.341 3.70349 3.9926
4.21783 4.41829 4.62885 4.8696 5.14978 5.47146 5.82934 6.20977 6.59232
6.93769 7.14777 7.1353 6.97687 6.78961 6.61708 6.46215 6.32199 6.20199
6.12049 6.10604 6.18488 6.36441 6.6275 6.9427 7.2788 7.61275 7.93045
8.22458 8.49233 8.7337 8.95047 9.14529 9.32107 9.48042 9.62543 9.7575
9.87747 9.98578 10.0826 10.1681 10.2425 10.3061 3.64068 3.58421 3.534
3.48451 3.4197 3.36247 3.72853 4.00804 4.21304 4.389 4.57327 4.78457
5.02934 5.30729 5.61329 5.93764 6.26388 6.55711 6.75138 6.79719 6.73123
6.62402 6.51451 6.41448 6.32804 6.2623 6.23084 6.25169 6.34018 6.50064
6.72333 6.989 7.27654 7.56843 7.85239 8.12095 8.37029 8.59908 8.80769
8.99744 9.17009 9.32742 9.47096 9.60187 9.72094 9.82866 9.92534 10.0112
10.0866 10.1518 3.60473 3.54592 3.49185 3.43663 3.36457 3.3 3.65362
3.92723 4.13014 4.30206 4.47682 4.67167 4.89217 5.13751 5.40273 5.67896
5.95117 6.19331 6.36919 6.4556 6.46627 6.43568 6.3911 6.34706 6.31196
6.29402 6.30373 6.35278 6.45035 6.59908 6.79345 7.02182 7.27034 7.52627
7.77972 8.02386 8.25454 8.46967 8.66864 8.85178 9.01998 9.17429 9.31572
9.44515 9.56323 9.67041 9.76707 9.85348 9.92996 9.99685 2.95866 2.80824
2.65261 2.49173 2.32556 2.1896 2.36818 2.54318 2.72104 2.91483 3.12786
3.34901 3.5691 3.78487 3.99557 4.20091 4.40055 4.59404 4.78093 4.96091
5.13393 5.3003 5.46075 5.61643 5.76881 5.91964 6.07072 6.22382 6.38044
6.54175 6.70846 6.88085 7.05871 7.24148 7.42829 7.61804 7.80947 8.00117
8.19161 8.37909 8.56176 8.73761 8.90457 9.0606 9.20391 9.33315 9.44756
9.54706 9.63214 9.70377 3.01167 2.85988 2.70266 2.54002 2.37199 2.23489
2.41944 2.60145 2.78678 2.98626 3.20267 3.427 3.65105 3.87141 4.08698
4.29717 4.50136 4.69887 4.88902 5.07133 5.24563 5.41223 5.57192 5.72603
5.8763 6.02474 6.17353 6.32471 6.48011 6.6411 6.80858 6.98292 7.16395
7.35111 7.54347 7.73987 7.93894 8.13912 8.33869 8.53569 8.7279 8.91284
9.08786 9.25035 9.39802 9.52921 9.64313 9.73987 9.82036 9.88607 3.06662
2.91366 2.75513 2.59112 2.42181 2.28453 2.47737 2.66978 2.86596 3.07215
3.29005 3.51475 3.74056 3.96418 4.18392 4.39865 4.60734 4.80893 5.00243
5.18714 5.36274 5.52948 5.68825 5.84056 5.9884 6.13412 6.28023 6.42912
6.5829 6.74319 6.91109 7.08706 7.27103 7.46243 7.66033 7.86349 8.07047
8.27959 8.48893 8.69626 8.89894 9.09394 9.2779 9.44745 9.59964 9.73244
9.84502 9.93785 10.0124 10.0709 3.12349 2.96952 2.80985 2.64466 2.47429
2.33707 2.53873 2.74151 2.94792 3.16101 3.38161 3.60741 3.83501 4.06166
4.28539 4.5046 4.71782 4.92359 5.12058 5.30779 5.48474 5.65162 5.8094
5.95977 6.105 6.24779 6.39097 6.53727 6.68909 6.84832 7.01625 7.19348
7.38002 7.57536 7.77857 7.98838 8.20328 8.42151 8.64098 8.85918 9.07304
9.27887 9.47247 9.64953 9.80629 9.94024 10.0506 10.1383 10.2056 10.2555
3.18222 3.02733 2.86657 2.70022 2.52868 2.39123 2.60118 2.81305 3.02819
3.24799 3.47281 3.70149 3.93199 4.16218 4.39012 4.61395 4.83182 5.04189
5.24249 5.43232 5.61071 5.77779 5.93461 6.08305 6.22566 6.36546 6.50561
6.64915 6.79877 6.95662 7.12416 7.3022 7.49083 7.68963 7.89768 8.11373
8.33624 8.56335 8.79286 9.02199 9.24723 9.46421 9.66778 9.85253 10.0137
10.1482 10.2554 10.3369 10.3959 10.4364 3.24279 3.08701 2.92513 2.75748
2.58449 2.44634 2.66385 2.88364 3.10638 3.33268 3.56262 3.79549 4.02997
4.26438 4.49687 4.72547 4.94808 5.16253 5.36682 5.55936 5.7393 5.90671
6.06273 6.2094 6.34957 6.48653 6.62373 6.7645 6.9118 7.06799 7.23477
7.41309 7.60321 7.80479 8.01697 8.23852 8.46788 8.70314 8.94196 9.18136
9.41743 9.64512 9.85829 10.0504 10.2155 10.35 10.4533 10.5279 10.5782
10.6091 3.30517 3.1485 2.98541 2.81627 2.6415 2.50218 2.72669 2.95361
3.18325 3.41583 3.65129 3.88908 4.12821 4.36728 4.60455 4.83798 5.06528
5.28405 5.49198 5.68726 5.86885 6.03679 6.19227 6.33754 6.47563 6.6101
6.74465 6.88282 7.02781 7.18218 7.34783 7.5259 7.7168 7.92032 8.13566
8.36162 8.59661 8.83866 9.08533 9.33346 9.57878 9.81565 10.0371 10.2353
10.4035 10.5374 10.6366 10.7045 10.7465 10.7687 3.3694 3.21181 3.04742
2.87657 2.69972 2.55884 2.78995 3.02351 3.25961 3.49828 3.73936 3.98236
4.22643 4.47031 4.71234 4.95043 5.18219 5.40501 5.61638 5.8143 5.99761
6.16631 6.32166 6.46602 6.60262 6.73517 6.86756 7.0035 7.14633 7.29881
7.46303 7.6403 7.83123 8.0357 8.253 8.48193 8.72087 8.96777 9.22008
9.47444 9.72633 9.96965 10.1967 10.399 10.5689 10.7018 10.7974 10.8598
10.8951 10.9103 3.43554 3.27702 3.11121 2.93846 2.75925 2.6165 2.85397
3.09387 3.33616 3.58075 3.82741 4.07565 4.32466 4.57326 4.81979 5.06216
5.29789 5.52429 5.73872 5.93906 6.12409 6.2938 6.44948 6.59359 6.72943
6.86082 6.9917 7.12592 7.2669 7.41755 7.58011 7.75609 7.94624 8.15057
8.36845 8.59865 8.83949 9.08881 9.3439 9.60124 9.8561 10.1021 10.3313
10.5348 10.7046 10.8361 10.9292 10.9881 11.0196 11.0307 3.50367 3.34422
3.17689 3.00206 2.82025 2.67536 2.91907 3.16514 3.41346 3.66385 3.916
4.16941 4.42324 4.67628 4.92691 5.173 5.41207 5.64139 5.85833 6.06074
6.24742 6.41837 6.57489 6.71944 6.85535 6.98642 7.11659 7.24971 7.38926
7.53824 7.69902 7.87325 8.06183 8.2649 8.48184 8.71143 8.95187 9.20088
9.45558 9.71227 9.96606 10.2106 10.4379 10.6394 10.8074 10.9373 11.0292
11.0872 11.1178 11.1281 3.57385 3.4135 3.24458 3.06751 2.88288 2.73563
2.98551 3.2377 3.49198 3.74813 4.00576 4.26428 4.52278 4.78001 5.03429
5.2835 5.52518 5.75669 5.97548 6.17952 6.36768 6.54 6.6978 6.84348
6.98027 7.11188 7.24215 7.37487 7.51349 7.66105 7.81999 7.99209 8.17836
8.37901 8.59348 8.82051 9.0582 9.30414 9.55527 9.80775 10.0567 10.2958
10.5177 10.7143 10.8787 11.007 11.099 11.1584 11.1911 11.2037 3.64612
3.4849 3.31433 3.13488 2.94722 2.7974 3.05349 3.31181 3.57213 3.83414
4.09737 4.36109 4.62428 4.88556 5.14315 5.39495 5.63857 5.87152 6.09146
6.2966 6.48596 6.6597 6.81908 6.96642 7.10479 7.2377 7.36883 7.50182
7.64003 7.78646 7.94358 8.11324 8.29651 8.49366 8.70417 8.92675 9.15945
9.39974 9.64446 9.88971 10.1306 10.3614 10.5751 10.7648 10.9246 11.051
11.1439 11.2063 11.2433 11.2603 3.72037 3.55837 3.3861 3.20412 3.01324
2.86068 3.12304 3.38763 3.65419 3.92238 4.19158 4.4609 4.72909 4.99455
5.25538 5.50944 5.75444 5.98815 6.20855 6.41419 6.60436 6.77934 6.9404
7.08973 7.23016 7.36496 7.49756 7.63139 7.76965 7.91525 8.07062 8.23758
8.41725 8.60993 8.81512 9.03154 9.25726 9.48971 9.72573 9.96147 10.1923
10.4127 10.6168 10.7985 10.953 11.0773 11.1714 11.2375 11.2796 11.3024
3.79634 3.63364 3.45961 3.27496 3.08067 2.92523 3.19398 3.46506 3.73829
4.01326 4.2892 4.56495 4.83891 5.10915 5.37349 5.62974 5.87575 6.10961
6.32976 6.53519 6.7256 6.90146 7.06406 7.21543 7.35814 7.49517 7.62964
7.7647 7.90337 8.04837 8.20203 8.36611 8.54168 8.72907 8.92779 9.13665
9.35377 9.57669 9.80236 10.0271 10.2465 10.4558 10.6496 10.823 10.9719
11.0939 11.1889 11.2586 11.306 11.3349 3.8734 3.7101 3.53427 3.34678
3.1489 2.99047 3.26573 3.54368 3.82426 4.10704 4.39105 4.67472 4.95589
5.23207 5.50068 5.75934 6.00609 6.23946 6.45852 6.6629 6.85277 7.0289
7.19264 7.34583 7.49078 7.6301 7.76657 7.90304 8.04228 8.1868 8.33875
8.49978 8.67087 8.85234 9.04374 9.24399 9.45136 9.66361 9.8779 10.0908
10.2984 10.4963 10.6799 10.845 10.9883 11.1078 11.2033 11.2758 11.3279
11.3624 3.95047 3.78666 3.60894 3.41843 3.21678 3.05531 3.33719 3.62252
3.91148 4.2037 4.49791 4.79191 5.08267 5.36677 5.64091 5.90245 6.14963
6.38166 6.59849 6.80061 6.98889 7.16446 7.32871 7.48331 7.6302 7.7716
7.90993 8.04771 8.18744 8.3314 8.48155 8.63937 8.80573 8.98088 9.16445
9.35547 9.55245 9.75342 9.95587 10.1567 10.3525 10.5392 10.7129 10.87
11.0077 11.1243 11.2195 11.2942 11.3499 11.3891 4.02573 3.86147 3.68174
3.488 3.28242 3.11792 3.40649 3.69985 3.99868 4.30275 4.61042 4.91853
5.22261 5.51768 5.79924 6.06417 6.31113 6.54038 6.75322 6.95141 7.13669
7.31064 7.47466 7.6301 7.77848 7.92153 8.06127 8.19993 8.33976 8.48285
8.63096 8.78539 8.94686 9.11556 9.29113 9.47276 9.65921 9.8488 10.0394
10.2284 10.4125 10.5885 10.7527 10.902 11.0341 11.1475 11.2417 11.3172
11.3755 11.4181 4.0965 3.93172 3.74977 3.55255 3.34294 3.17551 3.47068
3.77285 4.08357 4.40299 4.72903 5.05702 5.38014 5.69073 5.98224 6.25084
6.49602 6.71991 6.92598 7.11779 7.29828 7.46945 7.63252 7.78833 7.93768
8.08174 8.22212 8.36082 8.49997 8.64156 8.78719 8.93799 9.09451 9.25683
9.42459 9.59707 9.77327 9.95183 10.131 10.3085 10.4815 10.6471 10.8022
10.944 11.0703 11.1798 11.2721 11.3476 11.407 11.4518 4.15901 3.99348
3.80901 3.60802 3.39428 3.22413 3.52546 3.83721 4.16241 4.50204 4.85361
5.21026 5.56118 5.89403 6.19869 6.47038 6.71039 6.92432 7.11919 7.30126
7.47485 7.64224 7.80405 7.96005 8.10999 8.25422 8.39401 8.53136 8.66853
8.80756 8.95002 9.09685 9.24841 9.40461 9.56499 9.7289 9.89549 10.0637
10.232 10.3986 10.5611 10.7168 10.863 10.9972 11.1175 11.2227 11.3123
11.3864 11.4458 11.4915 4.20856 4.04178 3.85431 3.64921 3.43125 3.25857
3.56498 3.88671 4.22926 4.59546 4.98281 5.38127 5.77345 6.13862 6.46024
6.73236 6.96044 7.15658 7.33366 7.5016 7.66624 7.82956 7.99078 8.14766
8.29809 8.44138 8.57866 8.71242 8.84552 8.98039 9.11865 9.26105 9.40764
9.55806 9.71168 9.8678 10.0256 10.1843 10.3427 10.4991 10.6515 10.7977
10.9352 11.0618 11.1758 11.2761 11.3622 11.4342 11.4924 11.5376 4.24002
4.07113 3.87999 3.67028 3.44789 3.2726 3.58173 3.91267 4.27499 4.67523
5.11213 5.57178 6.02595 6.43855 6.78113 7.04688 7.25061 7.41661 7.56683
7.71577 7.87026 8.03103 8.19438 8.35443 8.50587 8.64651 8.77805 8.90455
9.0304 9.15881 9.29149 9.42884 9.57045 9.7155 9.86305 10.0122 10.1623
10.3124 10.4616 10.6085 10.7515 10.8885 11.0176 11.1366 11.2442 11.3392
11.4212 11.49 11.5461 11.5899 4.24885 4.07662 3.88088 3.66582 3.43836
3.25956 3.56683 3.90352 4.28571 4.72687 5.23005 5.77774 6.32491 6.80744
7.17429 7.41958 7.57865 7.69742 7.81037 7.93632 8.08189 8.245 8.41704
8.58552 8.7393 8.8742 8.99424 9.10753 9.22143 9.34034 9.46579 9.59748
9.73414 9.87427 10.0165 10.1596 10.3027 10.4451 10.586 10.7242 10.8583
10.9868 11.1077 11.2193 11.3204 11.41 11.4874 11.5526 11.6057 11.6473