# vtk DataFile Version 3.0
vtk output
ASCII
DATASET RECTILINEAR_GRID
FIELD FieldData 2
base_index 1 3 int
0 0 0
avtOriginalBounds 1 6 double
-10 10 -10 10 -10 10
DIMENSIONS 50 50 50
X_COORDINATES 50 float
-10 -9.59184 -9.18367 -8.77551 -8.36735 -7.95918 -7.55102 -7.14286 -6.73469
-6.32653 -5.91837 -5.5102 -5.10204 -4.69388 -4.28571 -3.87755 -3.46939 -3.06122
-2.65306 -2.2449 -1.83673 -1.42857 -1.02041 -0.612245 -0.204082 0.204082 0.612245
1.02041 1.42857 1.83673 2.2449 2.65306 3.06122 3.46939 3.87755 4.28572
4.69388 5.10204 5.5102 5.91837 6.32653 6.73469 7.14286 7.55102 7.95918
8.36735 8.77551 9.18367 9.59184 10
Y_COORDINATES 50 float
-10 -9.59184 -9.18367 -8.77551 -8.36735 -7.95918 -7.55102 -7.14286 -6.73469
-6.32653 -5.91837 -5.5102 -5.10204 -4.69388 -4.28571 -3.87755 -3.46939 -3.06122
-2.65306 -2.2449 -1.83673 -1.42857 -1.02041 -0.612245 -0.204082 0.204082 0.612245
1.02041 1.42857 1.83673 2.2449 2.65306 3.06122 3.46939 3.87755 4.28572
4.69388 5.10204 5.5102 5.91837 6.32653 6.73469 7.14286 7.55102 7.95918
8.36735 8.77551 9.18367 9.59184 10
Z_COORDINATES 50 float
-10 -9.59184 -9.18367 -8.77551 -8.36735 -7.95918 -7.55102 -7.14286 -6.73469
-6.32653 -5.91837 -5.5102 -5.10204 -4.69388 -4.28571 -3.87755 -3.46939 -3.06122
-2.65306 -2.2449 -1.83673 -1.42857 -1.02041 -0.612245 -0.204082 0.204082 0.612245
1.02041 1.42857 1.83673 2.2449 2.65306 3.06122 3.46939 3.87755 4.28572
4.69388 5.10204 5.5102 5.91837 6.32653 6.73469 7.14286 7.55102 7.95918
8.36735 8.77551 9.18367 9.59184 10
CELL_DATA 117649
POINT_DATA 125000
SCALARS temp float
LOOKUP_TABLE default
2.08534 2.27333 2.46191 2.65023 2.83725 3.02192 3.20364 3.38388 3.56843
3.76561 3.97722 4.19633 4.4156 4.63122 4.84172 5.04649 5.24509 5.43717
5.6224 5.80064 5.97198 6.13682 6.29594 6.45043 6.60166 6.7512 6.90068
7.05163 7.2054 7.36304 7.52522 7.69221 7.86388 8.03978 8.21914 8.40095
8.58403 8.76701 8.94838 9.12647 9.29949 9.46552 9.62266 9.76907 9.90318
10.0238 10.1304 10.2228 10.3014 10.3672 2.12172 2.31401 2.50708 2.70011
2.89213 3.08219 3.26985 3.45662 3.64773 3.85041 4.06618 4.2891 4.51247
4.73253 4.94758 5.15678 5.35949 5.55513 5.74322 5.92346 6.09589 6.2609
6.41935 6.57248 6.72189 6.86939 7.01689 7.16619 7.31888 7.4762 7.63898
7.80758 7.98193 8.16156 8.34567 8.5332 8.72283 8.91307 9.10221 9.28833
9.4693 9.64282 9.8065 9.95808 10.0956 10.2177 10.3237 10.4137 10.4883
10.549 2.15935 2.35628 2.5543 2.75269 2.95067 3.14757 3.34331 3.53933
3.73948 3.94838 4.16704 4.39164 4.61726 4.84048 5.05933 5.27256 5.47919
5.67834 5.86926 6.05149 6.22496 6.39004 6.54765 6.69921 6.84652 6.99168
7.13687 7.28416 7.43541 7.59207 7.75512 7.92503 8.1018 8.28499 8.47376
8.667 8.86331 9.06106 9.25834 9.45297 9.64244 9.82399 9.9947 10.1517
10.2927 10.416 10.5208 10.6075 10.6773 10.7318 2.19822 2.40008 2.60342
2.80764 3.01216 3.2166 3.42109 3.62681 3.83613 4.05155 4.27354 4.49996
4.72759 4.95361 5.17597 5.39306 5.60353 5.80616 5.99994 6.18419 6.35868
6.52378 6.68047 6.83032 6.97538 7.118 7.26063 7.40566 7.55516 7.71081
7.87376 8.04462 8.22347 8.40988 8.60305 8.80181 9.00469 9.20993 9.41546
9.6188 9.81708 10.007 10.185 10.3477 10.492 10.616 10.719 10.8017
10.8657 10.9133 2.23827 2.44531 2.65424 2.86455 3.07583 3.28785 3.5008
3.71546 3.93315 4.15507 4.38135 4.61073 4.84111 5.07028 5.29626 5.51724
5.73156 5.93771 6.13438 6.32067 6.49622 6.66136 6.81713 6.96527 7.10804
7.24804 7.38801 7.53059 7.6781 7.83243 7.99492 8.16631 8.34676 8.53593
8.73302 8.93684 9.14588 9.35827 9.57177 9.78364 9.99061 10.1888 10.3741
10.5422 10.6896 10.8139 10.9146 10.9926 11.0502 11.0904 2.27946 2.49188
2.70657 2.92309 3.14112 3.36048 3.58128 3.80398 4.02922 4.25753 4.48881
4.7222 4.95623 5.18911 5.41899 5.64397 5.86219 6.07186 6.27144 6.4598
6.63646 6.80172 6.95668 7.10322 7.2438 7.38127 7.51861 7.65869 7.80407
7.95683 8.11848 8.28992 8.47142 8.66271 8.86302 9.07118 9.28562 9.50438
9.72507 9.94473 10.1597 10.3656 10.5576 10.7306 10.8806 11.0047 11.1026
11.1756 11.2266 11.2594 2.32173 2.5397 2.76027 2.98306 3.20773 3.43412
3.66224 3.89228 4.1245 4.35905 4.59571 4.83379 5.0721 5.30914 5.54315
5.77221 5.99429 6.20742 6.40985 6.60028 6.77812 6.94363 7.09797 7.24315
7.38181 7.517 7.6519 7.78957 7.93277 8.08377 8.24423 8.41521 8.59711
8.78974 8.99238 9.20384 9.42254 9.64643 9.87298 10.099 10.3206 10.5328
10.7302 10.9072 11.0589 11.1825 11.2774 11.3455 11.3904 11.4164 2.36507
2.58873 2.8153 3.04436 3.27559 3.50876 3.74379 3.98069 4.2195 4.46017
4.70237 4.94546 5.18841 5.42984 5.66806 5.90111 6.1269 6.34331 6.54844
6.74086 6.91991 7.08583 7.23983 7.38402 7.52117 7.65447 7.78726 7.92275
8.06384 8.21296 8.37193 8.54195 8.72353 8.91659 9.12045 9.33393 9.55539
9.78271 10.0132 10.2436 10.4696 10.6861 10.887 11.0663 11.2188 11.3413
11.4335 11.4975 11.5375 11.558 2.40945 2.63896 2.87162 3.10699 3.3447
3.58448 3.82616 4.06964 4.31481 4.56148 4.80926 5.0575 5.30521 5.55105
5.79337 6.0302 6.25939 6.47876 6.68631 6.88056 7.06081 7.2273 7.38129
7.52494 7.6611 7.79304 7.92417 8.05782 8.19698 8.3442 8.50142 8.66997
8.85049 9.04298 9.2468 9.46078 9.68322 9.91192 10.1441 10.3762 10.604
10.8219 11.0238 11.2035 11.3555 11.4767 11.5666 11.6278 11.6645 11.6816
2.45486 2.69037 2.92924 3.17096 3.41514 3.66144 3.90963 4.15953 4.41093
4.66355 4.91693 5.17036 5.42284 5.67302 5.91923 6.15951 6.39167 6.61354
6.82312 7.01895 7.20033 7.36753 7.52184 7.66542 7.80115 7.93232 8.06235
8.19458 8.33206 8.47741 8.63268 8.79929 8.97801 9.16888 9.37133 9.58416
9.80562 10.0334 10.2647 10.4958 10.7222 10.9387 11.1389 11.3168 11.467
11.5865 11.6749 11.7348 11.7702 11.786 2.50124 2.74293 2.98812 3.23627
3.48693 3.73972 3.99438 4.25065 4.50828 4.7669 5.02596 5.28468 5.54197
5.79641 6.04629 6.28964 6.52431 6.74816 6.9593 7.15635 7.3387 7.50667
7.66156 7.80552 7.94138 8.07236 8.20184 8.3331 8.46921 8.61278 8.76594
8.9302 9.10637 9.29459 9.4943 9.70429 9.92278 10.1474 10.3752 10.6024
10.8248 11.0368 11.2328 11.4069 11.5542 11.6718 11.7594 11.8193 11.8553
11.8719 2.54851 2.79653 3.04818 3.30284 3.56001 3.81932 4.08047 4.34319
4.60719 4.87202 5.13703 5.4013 5.66358 5.92235 6.17579 6.4219 6.65861
6.8839 7.09607 7.29391 7.47696 7.64564 7.80127 7.94593 8.08237 8.21367
8.34308 8.47381 8.60883 8.75074 8.90169 9.06319 9.23615 9.42071 9.61636
9.8219 10.0355 10.2548 10.4768 10.6978 10.9135 11.1189 11.3086 11.4774
11.6207 11.7362 11.8235 11.8844 11.9224 11.9414 2.59647 2.85098 3.10918
3.37042 3.63416 3.90003 4.16777 4.43714 4.70783 4.97933 5.25084 5.52122
5.789 6.05242 6.30953 6.55826 6.79664 7.02285 7.23545 7.43354 7.6169
7.78608 7.94241 8.08793 8.22523 8.3572 8.48693 8.61745 8.75162 8.89197
9.04058 9.199 9.36811 9.54811 9.73851 9.93814 10.1452 10.3573 10.5716
10.7844 10.9917 11.1888 11.3708 11.5331 11.672 11.7851 11.8722 11.9347
11.9755 11.9979 2.64478 2.90588 3.17072 3.43855 3.70886 3.98134 4.25583
4.5322 4.81015 5.08911 5.36809 5.64563 5.91989 6.18873 6.44993 6.70136
6.94112 7.16772 7.3801 7.57778 7.76087 7.93012 8.08694 8.23326 8.37148
8.50428 8.63452 8.76501 8.89845 9.03725 9.18341 9.33842 9.50315 9.67782
9.86196 10.0545 10.2536 10.4571 10.6622 10.8655 11.0632 11.2509 11.4245
11.5799 11.7137 11.8242 11.911 11.9751 12.0189 12.045 2.69289 2.96062
3.23204 3.50639 3.7832 4.06231 4.34377 4.62764 4.91374 5.20144 5.48946
5.77589 6.05827 6.33388 6.60005 6.85447 7.09541 7.32178 7.5331 7.72949
7.91151 8.08021 8.23706 8.3839 8.52289 8.65646 8.78717 8.91761 9.05027
9.18743 9.33095 9.48225 9.64215 9.81086 9.98796 10.1724 10.3627 10.5566
10.7515 10.9444 11.1318 11.3098 11.4746 11.6227 11.7514 11.859 11.9451
12.0105 12.0569 12.0866 2.73995 3.01419 3.29202 3.57263 3.8557 4.14136
4.43003 4.7221 5.01765 5.31599 5.61549 5.9135 6.20661 6.49111 6.76362
7.02153 7.26335 7.48862 7.69773 7.89161 8.0715 8.23881 8.39506 8.54196
8.68137 8.8154 8.94629 9.0764 9.20803 9.34326 9.48386 9.63113 9.78583
9.94814 10.1177 10.2935 10.4742 10.6579 10.8423 11.0244 11.2013 11.3694
11.5254 11.6662 11.7896 11.894 11.9789 12.0449 12.0933 12.126 2.78476
3.06516 3.34893 3.63529 3.92416 4.21612 4.51217 4.81334 5.12013 5.43188
5.74646 6.0601 6.36787 6.66446 6.94525 7.20723 7.44928 7.67203 7.87718
8.06689 8.24326 8.40814 8.56307 8.70947 8.84882 8.98279 9.11331 9.24251
9.37252 9.50533 9.64258 9.78547 9.93466 10.0903 10.252 10.419 10.59
10.7633 10.9369 11.1083 11.2746 11.4329 11.5802 11.7139 11.8317 11.9325
12.0156 12.0815 12.1312 12.1659 2.82564 3.11152 3.40042 3.69164 3.98545
4.28312 4.5866 4.89789 5.21824 5.54726 5.88212 6.21741 6.54567 6.85895
7.15063 7.41705 7.65794 7.87573 8.07426 8.25747 8.42863 8.59 8.74296
8.8884 9.02716 9.16037 9.28964 9.41694 9.54438 9.67394 9.8072 9.94527
10.0887 10.2376 10.3914 10.5496 10.711 10.8741 11.0371 11.1979 11.354
11.5028 11.6416 11.768 11.8801 11.9769 12.0576 12.1226 12.1725 12.2083
2.86051 3.15074 3.44347 3.73811 4.03546 4.33775 4.64828 4.97063 5.30739
5.65877 6.02124 6.38689 6.74424 7.08079 7.38664 7.65725 7.89408 8.10284
8.29077 8.46444 8.62853 8.78555 8.93634 9.08072 9.21849 9.35004 9.47671
9.60056 9.72394 9.84899 9.97736 10.1101 10.2475 10.3896 10.5358 10.6855
10.8376 10.9909 11.1438 11.2945 11.4408 11.5802 11.7106 11.8298 11.9361
12.0284 12.1061 12.1693 12.2185 12.2545 2.88696 3.17987 3.47452 3.77048
4.06918 4.37413 4.69054 5.02433 5.38043 5.76051 6.16051 6.56896 6.9679
7.33712 7.66106 7.93418 8.16158 8.3548 8.52656 8.68702 8.84242 8.99514
9.14459 9.28867 9.42535 9.55405 9.67606 9.79405 9.91109 10.0298 10.1521
10.2787 10.4099 10.5453 10.6842 10.8259 10.9694 11.1135 11.2569 11.3979
11.5348 11.6653 11.7876 11.8996 11.9998 12.0873 12.1614 12.2221 12.2697
12.3049 2.90258 3.19591 3.48992 3.78427 4.0811 4.38543 4.70497 5.04909
5.42662 5.84231 6.29238 6.76076 7.21918 7.63426 7.98069 8.25213 8.46109
8.62935 8.77787 8.92144 9.0677 9.218 9.36905 9.51517 9.65125 9.77533
9.88934 9.99767 10.105 10.2149 10.3295 10.4492 10.5739 10.7028 10.8349
10.9693 11.1048 11.2404 11.375 11.507 11.635 11.757 11.8713 11.9762
12.0703 12.1527 12.2228 12.2804 12.3258 12.3594 2.90543 3.19643 3.48661
3.77559 4.06603 4.3645 4.68173 5.03191 5.43012 5.88702 6.40119 6.95127
7.49343 7.97221 8.34574 8.60783 8.78538 8.91704 9.03513 9.15958 9.29877
9.45193 9.61115 9.76445 9.90119 10.0176 10.1179 10.2107 10.3035 10.4015
10.5065 10.6186 10.7367 10.8594 10.9853 11.1129 11.2412 11.3692 11.4956
11.6194 11.739 11.853 11.9598 12.0578 12.1459 12.2231 12.2889 12.3431
12.3856 12.417 2.89459 3.18027 3.46305 3.74217 4.0203 4.30509 4.6104
4.95675 5.36869 5.86736 6.45745 7.11254 7.76713 8.33125 8.73655 8.97947
9.11189 9.19709 9.28087 9.38769 9.526 9.69222 9.8718 10.042 10.1816
10.2845 10.3616 10.4298 10.5021 10.5846 10.6785 10.7826 10.8943 11.0114
11.1316 11.2534 11.3753 11.4963 11.6154 11.7316 11.8437 11.9503 12.05
12.1417 12.2241 12.2963 12.3578 12.4083 12.4478 12.4765 2.87063 3.14815
3.42007 3.68459 3.94339 4.20383 4.48208 4.80595 5.21392 5.74439 6.41358
7.19021 7.98104 8.64996 9.09288 9.31262 9.39608 9.43558 9.48972 9.58637
9.73443 9.92888 10.1479 10.3511 10.4967 10.5753 10.6142 10.6466 10.6922
10.7569 10.8393 10.9358 11.042 11.1543 11.2698 11.3864 11.5027 11.6177
11.7303 11.8397 11.945 12.045 12.1386 12.2245 12.3018 12.3694 12.4269
12.4739 12.5103 12.5363 2.83569 3.10294 3.36133 3.60727 3.83979 4.06344
4.29374 4.56523 4.93592 5.47296 6.2111 7.10948 8.0394 8.81762 9.30785
9.52142 9.57742 9.59197 9.63337 9.73295 9.90266 10.1405 10.4206 10.678
10.8328 10.8716 10.8555 10.8436 10.8603 10.9081 10.9809 11.0717 11.1741
11.283 11.3949 11.5074 11.619 11.7286 11.8356 11.9393 12.0388 12.1333
12.2216 12.3028 12.3758 12.4396 12.4937 12.5376 12.5712 12.5944 2.79319
3.04929 3.29319 3.5188 3.72073 3.89701 4.05666 4.2361 4.51895 5.02264
5.81329 6.82282 7.86972 8.73865 9.28745 9.53483 9.61004 9.63734 9.69092
9.80727 10.0044 10.2877 10.634 10.9548 11.1204 11.1135 11.0426 10.9928
10.9888 11.0264 11.0948 11.1837 11.2848 11.3922 11.5019 11.6114 11.7192
11.8245 11.9268 12.0257 12.1207 12.2108 12.2952 12.3729 12.4427 12.5038
12.5554 12.5969 12.6281 12.6491 2.74716 2.99285 3.22374 3.43119 3.60454
3.73223 3.80931 3.86296 4.00288 4.43065 5.26986 6.38976 7.52465 8.44992
9.05398 9.36519 9.49983 9.57292 9.65911 9.79963 10.0178 10.3243 10.6995
11.0487 11.2233 11.2048 11.1209 11.0653 11.061 11.1013 11.1733 11.2654
11.3687 11.4768 11.5859 11.6936 11.7986 11.9006 11.9993 12.0947 12.1863
12.2736 12.3557 12.4313 12.4995 12.5592 12.6094 12.6495 12.6792 12.6984
2.70143 2.93897 3.16093 3.35721 3.51337 3.60948 3.62493 3.5681 3.56181
3.90558 4.79948 6.01648 7.19328 8.12205 8.74518 9.10679 9.30334 9.42998
9.55404 9.71642 9.94084 10.2363 10.5825 10.9008 11.0802 11.1055 11.0696
11.0497 11.0698 11.1272 11.2115 11.3122 11.4211 11.5324 11.6425 11.7496
11.8529 11.9526 12.0489 12.142 12.2319 12.3181 12.3995 12.4751 12.5434
12.6032 12.6534 12.6932 12.7223 12.7406 2.65894 2.8916 3.11045 3.30617
3.46473 3.56541 3.58419 3.52251 3.5014 3.84404 4.76043 5.96777 7.07647
7.9215 8.49659 8.85922 9.08656 9.24996 9.40237 9.57789 9.79566 10.0599
10.3516 10.6188 10.8002 10.8856 10.9226 10.9601 11.0202 11.1048 11.2078
11.3214 11.4389 11.5554 11.6681 11.7758 11.8785 11.9769 12.0719 12.1642
12.2541 12.341 12.4239 12.5014 12.5718 12.6335 12.6854 12.7264 12.756
12.7741 2.62126 2.8524 3.07403 3.28 3.46153 3.60687 3.70658 3.77912
3.93565 4.40524 5.28884 6.33292 7.23601 7.90091 8.35891 8.66959 8.88911
9.06406 9.22942 9.40851 9.6138 9.84609 10.0912 10.3199 10.5023 10.6323
10.7304 10.8227 10.9244 11.0392 11.1638 11.2927 11.4208 11.5441 11.6606
11.7699 11.8728 11.9708 12.0655 12.1584 12.25 12.3397 12.4264 12.5082
12.5829 12.6486 12.7039 12.7474 12.7787 12.7976 2.5887 2.82085 3.04933
3.2726 3.48969 3.70228 3.92152 4.18568 4.58293 5.2187 6.06391 6.89894
7.54254 7.9869 8.29781 8.52995 8.71802 8.88609 9.052 9.22805 9.42041
9.62816 9.84228 10.0476 10.2301 10.3865 10.5251 10.6584 10.795 10.9373
11.0828 11.2275 11.367 11.4981 11.6193 11.7309 11.8345 11.9326 12.028
12.1228 12.2179 12.3127 12.4056 12.4941 12.5755 12.6473 12.7077 12.7553
12.7894 12.8101 2.5607 2.795 3.03161 3.2734 3.52659 3.8036 4.12869
4.54533 5.11169 5.84986 6.65611 7.32977 7.77251 8.04552 8.23955 8.40478
8.56104 8.71696 8.87814 9.04856 9.22985 9.42032 9.61471 9.80554 9.98659
10.1564 10.3186 10.4787 10.6408 10.805 10.969 11.1285 11.2795 11.4189
11.5454 11.6596 11.764 11.8625 11.959 12.0567 12.1571 12.2593 12.361
12.4588 12.5492 12.6292 12.6963 12.7493 12.7873 12.8106 2.53645 2.77277
3.0162 3.27279 3.55322 3.87492 4.26459 4.75762 5.38359 6.1228 6.85864
7.42933 7.779 7.98159 8.12714 8.26291 8.40408 8.55344 8.71096 8.87629
9.04875 9.22665 9.40718 9.58714 9.76429 9.93865 10.1123 10.2878 10.4664
10.6469 10.826 10.9991 11.1615 11.3095 11.4417 11.5586 11.6637 11.7622
11.8599 11.9614 12.0686 12.1804 12.2935 12.403 12.5046 12.5944 12.6698
12.7292 12.772 12.7986 2.51552 2.75298 3.00056 3.2659 3.56127 3.90428
4.31728 4.82258 5.4279 6.09903 6.74233 7.24892 7.5831 7.79497 7.95223
8.09614 8.24257 8.39496 8.55276 8.71481 8.88004 9.04745 9.21606 9.38525
9.55523 9.72734 9.90358 10.0856 10.2735 10.4653 10.6567 10.8423 11.0164
11.174 11.3127 11.4327 11.5383 11.6363 11.7349 11.8406 11.956 12.0794
12.2058 12.3291 12.4434 12.5443 12.6288 12.6953 12.7434 12.7737 2.49809
2.73584 2.985 3.25347 3.55316 3.89939 4.30828 4.79085 5.34246 5.92971
6.48859 6.95302 7.29824 7.54843 7.74471 7.91785 8.08315 8.246 8.40745
8.56736 8.72556 8.88221 9.03796 9.19407 9.35258 9.51623 9.68783 9.86936
10.0609 10.2601 10.4622 10.6605 10.8475 11.0168 11.1639 11.2884 11.3948
11.4921 11.5914 11.7015 11.8259 11.962 12.103 12.2409 12.3685 12.4807
12.5744 12.648 12.7015 12.7357 2.48487 2.72271 2.97206 3.24026 3.53787
3.8773 4.26943 4.71824 5.21451 5.73126 6.22716 6.66259 7.0196 7.30624
7.54346 7.75044 7.93906 8.11506 8.28089 8.43788 8.58727 8.73067 8.87025
9.00892 9.15038 9.299 9.45911 9.63397 9.82459 10.0289 10.2414 10.454
10.6572 10.8419 11.0012 11.1333 11.2427 11.3405 11.4407 11.5553 11.6886
11.8372 11.9922 12.1438 12.2836 12.4062 12.5081 12.5883 12.6468 12.6846
2.47678 2.71536 2.96507 3.23226 3.52574 3.85525 4.22803 4.64466 5.09563
5.56086 6.01356 6.42902 6.79363 7.10722 7.37786 7.61484 7.825 8.01255
8.18041 8.3312 8.46775 8.59319 8.71115 8.82604 8.94324 9.0691 9.21025
9.37231 9.55809 9.76625 9.99069 10.2213 10.4458 10.6518 10.8295 10.9749
11.0921 11.1935 11.2965 11.4156 11.5566 11.7153 11.8814 12.0436 12.1929
12.3233 12.4317 12.517 12.5795 12.6206 2.47445 2.71518 2.96667 3.23412
3.52456 3.84532 4.20127 4.59171 5.00874 5.43803 5.86196 6.26437 6.63454
6.9682 7.26533 7.5271 7.75463 7.94943 8.11421 8.25294 8.37023 8.47085
8.55976 8.64261 8.72644 8.82001 8.93327 9.07557 9.25283 9.46494 9.70473
9.95916 10.212 10.447 10.6511 10.8179 10.9502 11.0614 11.1706 11.2947
11.441 11.6054 11.7775 11.9453 12.0996 12.2343 12.3464 12.4349 12.5002
12.5438 2.47803 2.72265 2.97796 3.24799 3.53797 3.85311 4.19659 4.56748
4.96003 5.36459 5.76982 6.1651 6.54201 6.89413 7.2155 7.49968 7.74097
7.9372 8.09118 8.20919 8.29844 8.36549 8.4163 8.45727 8.49677 8.5463
8.62047 8.73449 8.89935 9.11682 9.37757 9.66369 9.95351 10.2262 10.4654
10.6623 10.8186 10.9471 11.0674 11.1976 11.3466 11.5117 11.6835 11.8509
12.0051 12.1401 12.2529 12.3425 12.4092 12.4544 2.48712 2.73739 2.99867
3.27381 3.5663 3.87944 4.21502 4.57226 4.94753 5.33516 5.72879 6.12235
6.51002 6.88452 7.23459 7.54433 7.79804 7.98856 8.12067 8.20599 8.25608
8.27949 8.28244 8.27102 8.25404 8.24576 8.267 8.34207 8.49031 8.71624
9.00616 9.33386 9.66984 9.98809 10.2694 10.5037 10.6914 10.8442 10.9806
11.1189 11.2689 11.4307 11.5971 11.7591 11.9087 12.0405 12.1513 12.24
12.3069 12.353 2.50094 2.75853 3.02784 3.31058 3.60854 3.92317 4.25498
4.60327 4.9663 5.34198 5.7286 6.12493 6.52912 6.9351 7.32662 7.6736
7.94204 8.11692 8.21087 8.24764 8.24574 8.21533 8.16149 8.08838 8.00362
7.9234 7.87617 7.89978 8.02703 8.26647 8.5961 8.97609 9.36613 9.73485
10.0616 10.3363 10.559 10.7402 10.8965 11.0449 11.1964 11.3534 11.512
11.6656 11.8078 11.9338 12.0408 12.1273 12.1934 12.24 2.51851 2.78502
3.06443 3.35737 3.6639 3.98347 4.31504 4.65766 5.0112 5.377 5.75814
6.15923 6.58476 7.03389 7.48806 7.89577 8.18612 8.3301 8.36306 8.33297
8.26684 8.17452 8.0582 7.91832 7.75926 7.59725 7.46864 7.42927 7.53196
7.79083 8.17005 8.60984 9.05683 9.47527 9.84506 10.1576 10.4141 10.6236
10.8008 10.9612 11.1158 11.2691 11.4201 11.565 11.6991 11.8185 11.9206
12.0043 12.0692 12.1159 2.53873 2.81574 3.10758 3.41379 3.73258 4.06085
4.39529 4.73402 5.07822 5.4327 5.80576 6.20857 6.65407 7.15174 7.68837
8.18745 8.5115 8.60696 8.55868 8.45024 8.31365 8.15631 7.97743 7.77338
7.54384 7.3027 7.09221 6.98729 7.06475 7.3451 7.77446 8.27011 8.7663
9.22508 9.62863 9.97122 10.2552 10.4892 10.6859 10.8586 11.018 11.1698
11.3153 11.4528 11.5796 11.6928 11.7904 11.8711 11.9348 11.9818 2.56022
2.84934 3.15624 3.47962 3.81546 4.15714 4.49752 4.83258 5.16458 5.5024
5.85988 6.25441 6.70649 7.23619 7.84139 8.43113 8.79762 8.85786 8.74873
8.57679 8.37524 8.15606 7.92134 7.66547 7.38369 7.08627 6.81747 6.66446
6.72151 7.01359 7.47285 8.00035 8.52308 9.00301 9.42481 9.78508 10.0871
10.3388 10.5509 10.7348 10.8998 11.0521 11.1944 11.3269 11.448 11.5562
11.6499 11.7283 11.7911 11.8386 2.58116 2.88373 3.20848 3.55368 3.91287
4.27424 4.62401 4.95399 5.2677 5.57963 5.90991 6.28054 6.71474 7.23436
7.83927 8.44331 8.84669 8.95862 8.87992 8.68955 8.4362 8.16264 7.8851
7.59857 7.29506 6.98187 6.701 6.53768 6.58455 6.86597 7.31471 7.83284
8.34824 8.82371 9.2447 9.60825 9.91736 10.1786 10.4007 10.5927 10.7628
10.9167 11.0578 11.1871 11.3045 11.4091 11.5001 11.5769 11.6393 11.6876
2.599 2.91553 3.26017 3.63175 4.02157 4.41054 4.77379 5.09553 5.38178
5.65611 5.94643 6.27733 6.66946 7.13752 7.67513 8.21943 8.6502 8.89336
8.93307 8.76261 8.46822 8.15358 7.85376 7.56324 7.27182 6.98494 6.73868
6.6029 6.65046 6.90034 7.30003 7.76934 8.24505 8.69172 9.09389 9.4471
9.75272 10.0153 10.2414 10.438 10.6115 10.767 10.9077 11.0353 11.1504
11.2528 11.3421 11.4181 11.4807 11.5302 2.61047 2.93968 3.30387 3.70369
4.12934 4.55307 4.93337 5.24243 5.49131 5.71786 5.95931 6.2411 6.57861
6.97835 7.43167 7.90424 8.34327 8.694 8.85061 8.71808 8.41481 8.09515
7.80517 7.53918 7.28741 7.05454 6.8686 6.77905 6.83411 7.04616 7.38079
7.78145 8.1986 8.6006 8.97114 9.30369 9.59731 9.85435 10.079 10.2763
10.4509 10.6071 10.7476 10.8743 10.9881 11.0892 11.1777 11.2535 11.3168
11.3679 2.61196 2.94993 3.32879 3.75177 4.20949 4.66659 5.06282 5.35592
5.56424 5.74242 5.93614 6.16994 6.45386 6.78892 7.16722 7.5712 7.97572
8.33377 8.52939 8.46216 8.22684 7.96312 7.72181 7.50547 7.31012 7.14139
7.01975 6.97706 7.04219 7.22234 7.49698 7.82977 8.18518 8.53722 8.87021
9.17619 9.45224 9.69864 9.91756 10.1121 10.2857 10.4412 10.5811 10.7071
10.82 10.9205 11.0087 11.0849 11.1493 11.2023 2.60049 2.94061 3.32406
3.75539 4.22586 4.69657 5.09706 5.37664 5.55792 5.70436 5.86485 6.06219
6.30292 6.58521 6.90159 7.23941 7.57835 7.87662 8.05638 8.06118 7.93719
7.76891 7.60212 7.4501 7.31712 7.21084 7.14632 7.14349 7.21901 7.37693
7.60538 7.88198 8.18264 8.48752 8.7829 9.06057 9.31641 9.54915 9.75935
9.94862 10.1191 10.2727 10.4113 10.5363 10.6485 10.7486 10.8369 10.9138
10.9796 11.0346 2.57481 2.90919 3.28442 3.70379 4.15774 4.60931 4.99465
5.26823 5.44856 5.59136 5.74117 5.91914 6.13102 6.37455 6.64271 6.92401
7.20002 7.4396 7.60032 7.65607 7.62476 7.54802 7.4581 7.3718 7.29851
7.24736 7.22992 7.25899 7.34446 7.48864 7.68469 7.919 8.17567 8.44025
8.70162 8.95224 9.18757 9.40544 9.60527 9.78757 9.95341 10.104 10.2407
10.3643 10.4758 10.5756 10.6641 10.7418 10.809 10.8661 2.11333 2.30398
2.49503 2.68543 2.87379 3.05835 3.2374 3.41159 3.58964 3.78839 4.01123
4.2433 4.4729 4.69622 4.91259 5.12192 5.324 5.51851 5.70505 5.88343
6.05372 6.2164 6.37243 6.5232 6.67048 6.81628 6.96268 7.11164 7.26485
7.42358 7.58856 7.76002 7.93768 8.12086 8.30854 8.49947 8.6922 8.88518
9.0767 9.2649 9.44777 9.62312 9.78871 9.94236 10.0822 10.2067 10.3153
10.4078 10.4848 10.5476 2.15119 2.34634 2.54211 2.73748 2.93117 3.12161
3.30747 3.48975 3.67637 3.88122 4.10717 4.34211 4.5756 4.8036 5.02498
5.23928 5.44597 5.64443 5.83404 6.01438 6.18543 6.34767 6.50216 6.6505
6.79476 6.9373 7.08058 7.22693 7.37834 7.53632 7.70181 7.87513 8.05603
8.2438 8.43738 8.6354 8.8363 9.03837 9.23968 9.43806 9.6311 9.8161
9.9902 10.1506 10.2948 10.4212 10.5288 10.618 10.6897 10.7457 2.19044
2.39047 2.59146 2.79255 2.99273 3.19094 3.38667 3.58142 3.78083 3.99286
4.21923 4.45329 4.68778 4.9187 5.14416 5.36301 5.57419 5.77664 5.96937
6.15173 6.32352 6.48519 6.63791 6.78351 6.92438 7.06325 7.20297 7.34623
7.49538 7.65218 7.81777 7.99258 8.17645 8.36865 8.56808 8.77332 8.9827
9.19435 9.40615 9.6156 9.81985 10.0156 10.1991 10.3669 10.5157 10.6434
10.7493 10.8338 10.8988 10.9466 2.23106 2.43629 2.64292 2.85026 3.05758
3.26433 3.47054 3.67763 3.88896 4.10835 4.33664 4.57069 4.80615 5.03965
5.26892 5.49219 5.70786 5.91438 6.11036 6.29482 6.46738 6.62844 6.77928
6.92197 7.05921 7.19414 7.32997 7.4698 7.61629 7.77148 7.93672 8.11259
8.29901 8.4953 8.70033 8.91265 9.13053 9.35196 9.57463 9.79575 10.012
10.2192 10.413 10.5886 10.742 10.8706 10.9737 11.0523 11.1091 11.1473
2.27302 2.48372 2.69628 2.91014 3.12479 3.33998 3.55591 3.7736 3.99484
4.2214 4.45361 4.68989 4.92768 5.16438 5.39769 5.62551 5.84577 6.05648
6.25583 6.44251 6.61592 6.77642 6.9254 7.06515 7.19873 7.32963 7.46146
7.59764 7.74117 7.89437 8.05879 8.2352 8.42362 8.62343 8.83356 9.05251
9.27851 9.50947 9.74291 9.97577 10.2042 10.4234 10.6277 10.8114 10.9692
11.0981 11.1973 11.2688 11.3162 11.344 2.31628 2.53268 2.75136 2.97184
3.19376 3.41695 3.64159 3.8683 4.09799 4.33146 4.56878 4.80901 5.05048
5.29118 5.52894 5.76148 5.98643 6.2014 6.40419 6.59317 6.76754 6.92763
7.0749 7.21191 7.34201 7.46903 7.59693 7.72945 7.86987 8.02076 8.18391
8.36026 8.54999 8.75258 8.96699 9.19174 9.42503 9.6647 9.90812 10.152
10.392 10.6226 10.8371 11.0284 11.1903 11.3187 11.4134 11.4771 11.5146
11.5317 2.36084 2.58313 2.80806 3.0352 3.26421 3.49495 3.7275 3.96216
4.1994 4.43953 4.68249 4.92758 5.1736 5.41886 5.66133 5.89865 6.12823
6.34737 6.55355 6.74485 6.9203 7.08018 7.22607 7.36073 7.48777 7.61132
7.73561 7.86466 8.00196 8.15034 8.3118 8.48748 8.67773 8.88214 9.09974
9.32908 9.56831 9.81519 10.067 10.3202 10.57 10.8104 11.0336 11.2314
11.3962 11.5237 11.6136 11.6696 11.6979 11.7051 2.40672 2.63508 2.86638
3.10019 3.33615 3.57409 3.81398 4.05593 4.30014 4.5467 4.79543 5.04577
5.29669 5.5467 5.79386 6.03576 6.26967 6.49267 6.70199 6.89552 7.07213
7.23209 7.37706 7.50996 7.63461 7.75534 7.87658 8.00254 8.1369 8.28269
8.44211 8.61651 8.8064 9.01153 9.23099 9.46331 9.70662 9.95858 10.2163
10.4761 10.7329 10.98 11.2092 11.411 11.5774 11.7035 11.7891 11.8388
11.8597 11.8591 2.45396 2.68858 2.92638 3.16689 3.40972 3.65463 3.90149
4.15032 4.40113 4.65388 4.90835 5.16397 5.4198 5.67443 5.92597 6.17198
6.40966 6.63595 6.84798 7.04347 7.22127 7.38162 7.52623 7.65812 7.78124
7.90001 8.01897 8.14242 8.27419 8.41744 8.57455 8.74709 8.93573 9.14036
9.36012 9.59354 9.83865 10.093 10.3535 10.6163 10.8761 11.1259 11.3571
11.56 11.7261 11.8504 11.933 11.9788 11.9951 11.9898 2.50262 2.74371
2.98816 3.23544 3.4851 3.73685 3.99048 4.24592 4.5031 4.76188 5.02196
5.28276 5.54333 5.80227 6.05767 6.30713 6.5478 6.77662 6.99071 7.18779
7.3667 7.52772 7.67257 7.8043 7.92684 8.04464 8.16221 8.28388 8.41352
8.5544 8.70906 8.87922 9.06572 9.26857 9.48694 9.71936 9.96373 10.2174
10.4772 10.739 10.9974 11.2454 11.4743 11.6748 11.8386 11.961 12.0422
12.0868 12.1021 12.0958 2.55275 2.80055 3.05183 3.30598 3.56249 3.82102
4.08132 4.34325 4.60669 4.87142 5.13707 5.40296 5.66808 5.93097 6.1897
6.44185 6.68464 6.91512 7.1305 7.32865 7.5085 7.67037 7.81601 7.94836
8.07129 8.1891 8.30622 8.42689 8.55497 8.69376 8.8459 9.01324 9.19675
9.39653 9.61181 9.84106 10.0821 10.3321 10.5877 10.8446 11.0974 11.3392
11.562 11.757 11.9168 12.0372 12.1184 12.1644 12.1819 12.1779 2.60437
2.85913 3.11744 3.37858 3.642 3.9073 4.17425 4.44267 4.71242 4.98321
5.25455 5.52563 5.79529 6.06193 6.32355 6.57774 6.82183 7.05305 7.26891
7.4675 7.64798 7.81075 7.95753 8.09115 8.21527 8.33398 8.45151 8.57195
8.69904 8.83608 8.98571 9.14987 9.32962 9.52511 9.73562 9.9596 10.1948
10.4383 10.6865 10.9352 11.179 11.4115 11.6251 11.8125 11.9671 12.0854
12.1674 12.2166 12.2386 12.2395 2.65741 2.91941 3.18494 3.4532 3.72358
3.99569 4.26933 4.54438 4.82068 5.09789 5.37537 5.65209 5.92664 6.19717
6.46154 6.71732 6.96201 7.19315 7.40863 7.60696 7.78759 7.95107 8.09911
8.23436 8.36023 8.48052 8.59915 8.72 8.84663 8.98223 9.12941 9.2901
9.46539 9.6555 9.85972 10.0765 10.3036 10.5382 10.7766 11.0146 11.247
11.468 11.6709 11.8494 11.9982 12.1142 12.1974 12.2506 12.2781 12.2852
2.71167 2.98116 3.25409 3.52955 3.80691 4.08585 4.3663 4.64825 4.93162
5.21601 5.50056 5.78393 6.06427 6.33936 6.60676 6.864 7.10878 7.33905
7.55326 7.75047 7.93055 8.09431 8.24341 8.38036 8.50822 8.63045 8.75064
8.87233 8.99889 9.1333 9.27807 9.43505 9.60532 9.7891 9.98574 10.1938
10.4111 10.6348 10.8615 11.0871 11.3069 11.5154 11.707 11.8762 12.0188
12.1323 12.2166 12.2736 12.3069 12.3205 2.76672 3.04389 3.32432 3.60696
3.89122 4.17697 4.46438 4.75372 5.04503 5.33789 5.63118 5.92301 6.21087
6.49188 6.76313 7.02202 7.26647 7.49504 7.70692 7.90192 8.0805 8.24377
8.39345 8.53181 8.66159 8.78581 8.90768 9.03041 9.15705 9.29038 9.43272
9.5858 9.7506 9.92734 10.1154 10.3135 10.5197 10.7313 10.9452 11.1576
11.3641 11.56 11.7403 11.9004 12.0368 12.1475 12.2322 12.2924 12.3308
12.3504 2.82176 3.1067 3.39455 3.68418 3.97511 4.26754 4.56208 4.85948
5.1601 5.46352 5.76821 6.07149 6.36975 6.65901 6.93555 7.1965 7.44013
7.66585 7.87394 8.06524 8.24102 8.40276 8.55224 8.69148 8.82279 8.94875
9.07211 9.19571 9.32233 9.45448 9.59426 9.74322 9.90225 10.0715 10.2504
10.4379 10.6322 10.831 11.0316 11.2305 11.4238 11.6072 11.7765 11.9278
12.0581 12.1656 12.25 12.3124 12.3547 12.3795 2.87552 3.16808 3.46302
3.75915 4.05623 4.35499 4.65682 4.96322 5.27514 5.59226 5.9125 6.23193
6.54513 6.84626 7.13021 7.39367 7.63552 7.85651 8.05858 8.24408 8.41529
8.57421 8.72255 8.86198 8.99425 9.12139 9.24569 9.36965 9.49577 9.62634
9.76327 9.9079 10.061 10.2225 10.3921 10.5688 10.751 10.9369 11.1242
11.3097 11.4901 11.6616 11.8203 11.963 12.087 12.1909 12.2742 12.3376
12.3825 12.411 2.92607 3.22571 3.52701 3.82873 4.13101 4.43543 4.74456
5.06114 5.38713 5.72254 6.0646 6.4074 6.74256 7.06098 7.35521 7.62127
7.85921 8.07217 8.26472 8.44141 8.60583 8.76046 8.90678 9.04575 9.17834
9.30587 9.43017 9.55348 9.67818 9.80644 9.94 10.08 10.227 10.381
10.5414 10.7075 10.878 11.0514 11.2256 11.3982 11.5662 11.7262 11.8748
12.009 12.1266 12.2263 12.3074 12.3706 12.4168 12.4476 2.97072 3.27638
3.58273 3.88851 4.19445 4.50334 4.81945 5.14748 5.49112 5.85127 6.22438
6.60156 6.96943 7.31323 7.62134 7.88894 8.11857 8.31771 8.49529 8.65899
8.81404 8.96312 9.10694 9.2452 9.37758 9.50447 9.62732 9.74836 9.8701
9.99482 10.1242 10.2592 10.4001 10.5467 10.6984 10.8546 11.014 11.1756
11.3376 11.4979 11.654 11.8029 11.9416 12.0674 12.1784 12.2731 12.3513
12.413 12.4591 12.4908 3.00611 3.31601 3.62534 3.93289 4.24014 4.55145
4.87347 5.21388 5.57932 5.9727 6.39005 6.81823 7.23546 7.61672 7.94292
8.20836 8.42109 8.59671 8.75121 8.89659 9.03971 9.18282 9.32485 9.4631
9.59509 9.71998 9.8391 9.95524 10.0716 10.191 10.3149 10.4443 10.5791
10.7188 10.8625 11.0095 11.1589 11.3095 11.4602 11.609 11.7538 11.892
12.0209 12.1383 12.2423 12.3316 12.4058 12.465 12.5098 12.5409 3.02858
3.34009 3.64949 3.9556 4.26071 4.57104 4.89638 5.2487 5.63964 6.07636
6.5559 7.05961 7.5519 7.98886 8.33745 8.59183 8.77215 8.90907 9.02946
9.15058 9.28029 9.4191 9.56244 9.70325 9.83533 9.95619 10.0678 10.1748
10.2821 10.3934 10.5104 10.6336 10.7622 10.8953 11.0318 11.1707 11.311
11.4517 11.5919 11.73 11.8641 11.992 12.1115 12.2204 12.3172 12.4006
12.4702 12.5259 12.5682 12.5977 3.0349 3.3446 3.65033 3.95079 4.24892
4.55283 4.87601 5.23644 5.65378 6.14349 6.70713 7.32057 7.92656 8.44658
8.82084 9.04624 9.16903 9.24639 9.32007 9.41214 9.52983 9.67006 9.82227
9.97165 10.1053 10.2184 10.3157 10.4067 10.4996 10.5994 10.7076 10.8238
10.9463 11.0734 11.2034 11.3351 11.4673 11.5991 11.7298 11.8579 11.982
12.1002 12.2106 12.3112 12.4007 12.4779 12.5425 12.5941 12.6332 12.6601