# vtk DataFile Version 3.0
vtk output
ASCII
DATASET RECTILINEAR_GRID
FIELD FieldData 2
base_index 1 3 int
0 0 0
avtOriginalBounds 1 6 double
-10 10 -10 10 -10 10
DIMENSIONS 50 50 50
X_COORDINATES 50 float
-10 -9.59184 -9.18367 -8.77551 -8.36735 -7.95918 -7.55102 -7.14286 -6.73469
-6.32653 -5.91837 -5.5102 -5.10204 -4.69388 -4.28571 -3.87755 -3.46939 -3.06122
-2.65306 -2.2449 -1.83673 -1.42857 -1.02041 -0.612245 -0.204082 0.204082 0.612245
1.02041 1.42857 1.83673 2.2449 2.65306 3.06122 3.46939 3.87755 4.28572
4.69388 5.10204 5.5102 5.91837 6.32653 6.73469 7.14286 7.55102 7.95918
8.36735 8.77551 9.18367 9.59184 10
Y_COORDINATES 50 float
-10 -9.59184 -9.18367 -8.77551 -8.36735 -7.95918 -7.55102 -7.14286 -6.73469
-6.32653 -5.91837 -5.5102 -5.10204 -4.69388 -4.28571 -3.87755 -3.46939 -3.06122
-2.65306 -2.2449 -1.83673 -1.42857 -1.02041 -0.612245 -0.204082 0.204082 0.612245
1.02041 1.42857 1.83673 2.2449 2.65306 3.06122 3.46939 3.87755 4.28572
4.69388 5.10204 5.5102 5.91837 6.32653 6.73469 7.14286 7.55102 7.95918
8.36735 8.77551 9.18367 9.59184 10
Z_COORDINATES 50 float
-10 -9.59184 -9.18367 -8.77551 -8.36735 -7.95918 -7.55102 -7.14286 -6.73469
-6.32653 -5.91837 -5.5102 -5.10204 -4.69388 -4.28571 -3.87755 -3.46939 -3.06122
-2.65306 -2.2449 -1.83673 -1.42857 -1.02041 -0.612245 -0.204082 0.204082 0.612245
1.02041 1.42857 1.83673 2.2449 2.65306 3.06122 3.46939 3.87755 4.28572
4.69388 5.10204 5.5102 5.91837 6.32653 6.73469 7.14286 7.55102 7.95918
8.36735 8.77551 9.18367 9.59184 10
CELL_DATA 117649
POINT_DATA 125000
SCALARS temp float
LOOKUP_TABLE default
5.00482 4.87266 4.73379 4.58793 4.43484 4.27448 4.10768 3.9376 3.77108
3.61499 3.46778 3.32097 3.1683 3.008 2.84048 2.66677 2.48794 2.30499
2.43482 2.61725 2.79618 2.97151 3.14337 3.31213 3.47839 3.64293 3.80665
3.97047 4.13527 4.3018 4.47061 4.642 4.81607 4.99266 5.17139 5.35172
5.53292 5.71413 5.89435 6.07244 6.24712 6.417 6.58066 6.73668 6.88381
7.02106 7.1478 7.26378 7.36917 7.46441 5.09212 4.95983 4.82063 4.67428
4.52063 4.35974 4.19258 4.02224 3.85489 3.69639 3.54535 3.39439 3.23782
3.0738 2.90258 2.72505 2.5422 2.355 2.48715 2.67267 2.8542 3.03159
3.20499 3.37481 3.54174 3.70671 3.87075 4.03497 4.2004 4.36791 4.53819
4.71163 4.88837 5.06828 5.25101 5.43596 5.62239 5.80933 5.99569 6.18014
6.3612 6.5372 6.70638 6.86702 7.01757 7.15686 7.28419 7.39942 7.50287
7.59526 5.18245 5.05044 4.91142 4.76531 4.61212 4.45222 4.28676 4.11849
3.95184 3.79045 3.63329 3.47554 3.313 3.14391 2.96814 2.78624 2.59898
2.40723 2.54173 2.73043 2.91463 3.09412 3.26904 3.43988 3.60741 3.77269
3.93694 4.1014 4.26728 4.43561 4.60718 4.7825 4.96178 5.14493 5.3316
5.5212 5.71293 5.90579 6.09853 6.28968 6.47751 6.66002 6.83509 7.00057
7.15458 7.29572 7.42325 7.53716 7.63802 7.72689 5.27573 5.14432 5.00587
4.86043 4.70824 4.54985 4.38649 4.22029 4.05399 3.88949 3.72614 3.56126
3.39217 3.2174 3.03657 2.84991 2.65796 2.46142 2.59832 2.7903 2.97724
3.15888 3.33536 3.5072 3.67531 3.84085 4.00521 4.16981 4.336 4.50498
4.67767 4.85467 5.03629 5.22249 5.41295 5.60708 5.80406 6.00282 6.20202
6.40002 6.59483 6.78409 6.96524 7.13568 7.29309 7.43583 7.56312 7.67514
7.77281 7.85757 5.37186 5.24128 5.10359 4.95896 4.80776 4.65064 4.4887
4.32345 4.15651 3.98886 3.82014 3.64892 3.47362 3.29318 3.10714 2.91553
2.71869 2.51718 2.65654 2.85188 3.04164 3.2255 3.40359 3.57649 3.7452
3.91102 4.07548 4.24015 4.40656 4.57604 4.74965 4.92811 5.1118 5.30076
5.49472 5.6931 5.89506 6.0995 6.30499 6.5097 6.7114 6.90737 7.09456
7.26985 7.43047 7.57448 7.70111 7.81077 7.90479 7.98507 5.47069 5.34108
5.2042 5.0603 4.90981 4.75337 4.59189 4.42645 4.25805 4.08723 3.91384
3.73714 3.55622 3.37035 3.17914 2.9825 2.78065 2.57405 2.71589 2.91466
3.10731 3.29347 3.47326 3.64733 3.81673 3.98291 4.14752 4.31228 4.47886
4.64872 4.82305 5.0027 5.18814 5.37949 5.57652 5.77868 5.98513 6.19473
6.40597 6.61688 6.82498 7.0272 7.22002 7.39977 7.56321 7.70813 7.83376
7.94078 8.03099 8.10674 5.57215 5.44358 5.30748 5.16411 5.01393 4.85754
4.6957 4.52919 4.35873 4.18468 4.00705 3.82545 3.63936 3.44832 3.25198
3.05027 2.84331 2.63152 2.77584 2.97805 3.17363 3.36218 3.54381 3.71918
3.88945 4.05615 4.22105 4.38597 4.55272 4.72288 4.89776 5.07831 5.26512
5.45838 5.65791 5.86319 6.07339 6.28732 6.5034 6.71954 6.93305 7.14055
7.33809 7.52153 7.68719 7.83263 7.95709 8.06154 8.14818 8.21983 5.67616
5.54868 5.41328 5.27024 5.11999 4.96311 4.80025 4.63207 4.45913 4.28176
4.10004 3.91383 3.72282 3.52671 3.32526 3.11839 2.90621 2.68913 2.83585
3.04148 3.24002 3.43103 3.61463 3.79151 3.96288 4.13033 4.29572 4.46096
4.62794 4.79836 4.97362 5.15479 5.34255 5.53715 5.73849 5.94606 6.15902
6.37614 6.59578 6.81575 7.03317 7.24444 7.44529 7.63124 7.79831 7.94387
8.06722 8.16953 8.25335 8.32178 5.78268 5.65634 5.52158 5.37866 5.22802
5.07022 4.90588 4.73558 4.55985 4.37902 4.19324 4.00249 3.80662 3.60544
3.39878 3.1866 2.96906 2.74655 2.89556 3.10451 3.30599 3.49954 3.68526
3.86387 4.03661 4.2051 4.37124 4.53702 4.70436 4.87503 5.05055 5.23205
5.4203 5.61564 5.81799 6.02687 6.24142 6.46036 6.68198 6.904 7.12343
7.33653 7.53889 7.72586 7.89335 8.03867 8.16116 8.26212 8.34422 8.41075
5.89166 5.76654 5.63236 5.4894 5.33812 5.17908 5.0129 4.84018 4.66143
4.47701 4.28712 4.09181 3.89103 3.68465 3.47262 3.25493 3.0318 2.80369
2.95481 3.16695 3.37132 3.56744 3.75543 3.936 4.1104 4.28026 4.44747
4.61402 4.78188 4.95286 5.12853 5.31009 5.4984 5.69382 5.89634 6.10547
6.32031 6.53955 6.76141 6.98353 7.20288 7.41569 7.61758 7.80396 7.97084
8.11559 8.2376 8.33813 8.41983 8.48593 6.00299 5.87919 5.74558 5.60247
5.45034 5.28981 5.12156 4.94621 4.7643 4.57622 4.38219 4.18229 3.9765
3.7648 3.54716 3.3237 3.09472 2.86076 3.01378 3.22895 3.43611 3.63481
3.82519 4.00794 4.18429 4.35582 4.52441 4.69201 4.86059 5.03195 5.2077
5.38909 5.57701 5.77189 5.97371 6.18199 6.39582 6.61383 6.83419 7.0545
7.27175 7.48226 7.68182 7.86612 8.03143 8.17533 8.2972 8.39819 8.48071
8.54777 6.11643 5.99408 5.86106 5.7177 5.56458 5.4024 5.23194 5.05389
4.86883 4.67714 4.47903 4.27458 4.06377 3.84659 3.62313 3.39359 3.15842
2.9183 3.07301 3.29101 3.50084 3.7021 3.89494 4.08004 4.25857 4.43207
4.60233 4.77124 4.94072 5.11256 5.28834 5.46935 5.65649 5.85021 6.05051
6.25691 6.46849 6.68384 6.90112 7.11795 7.33138 7.53791 7.73366 7.9147
8.07769 8.22046 8.34241 8.44447 8.52873 8.59784 6.23152 6.11077 5.97836
5.8347 5.68047 5.51656 5.34387 5.16321 4.97519 4.78015 4.57826 4.36948
4.15376 3.93108 3.70159 3.46565 3.22389 2.97721 3.13337 3.35402 3.56636
3.7701 3.96541 4.15295 4.33384 4.50952 4.68168 4.85212 5.02267 5.19506
5.37085 5.5513 5.7373 5.92933 6.12737 6.33096 6.53919 6.75067 6.96357
7.17559 7.3839 7.58528 7.77619 7.95317 8.11332 8.25471 8.37677 8.48019
8.56668 8.63848 6.34746 6.22846 6.09668 5.95263 5.79723 5.63157 5.45679
5.27383 5.08332 4.88555 4.68049 4.46794 4.24767 4.01961 3.78396 3.54127
3.29243 3.03862 3.19601 3.41909 3.63377 3.83985 4.03756 4.22757 4.4109
4.58889 4.76309 4.9352 5.10694 5.27994 5.45571 5.63544 5.82001 6.00987
6.20504 6.40506 6.60906 6.81572 7.02327 7.22954 7.4319 7.6274 7.81289
7.98538 8.14235 8.28214 8.40416 8.50892 8.59773 8.67241 6.46293 6.34578
6.2146 6.07008 5.91343 5.7461 5.56954 5.38489 5.19279 4.99338 4.78632
4.57103 4.34697 4.11389 3.87203 3.62218 3.36561 3.10393 3.26227 3.48754
3.7043 3.91252 4.11252 4.30493 4.49068 4.671 4.8473 5.02112 5.19407
5.36768 5.54336 5.72223 5.90514 6.09249 6.28432 6.48021 6.67935 6.88052
7.0821 7.28206 7.47801 7.66729 7.84714 8.01495 8.16855 8.30651 8.42824
8.53406 8.62494 8.70235 6.57589 6.46061 6.32991 6.18475 6.02676 5.85793
5.68014 5.49481 5.3026 5.10335 4.8962 4.67993 4.4534 4.21601 3.96799
3.71046 3.44527 3.17466 3.33356 3.56069 3.77922 3.98932 4.1914 4.38608
4.57419 4.75676 4.93508 5.11054 5.28461 5.45873 5.6342 5.81208 5.99313
6.17774 6.36594 6.55735 6.75127 6.9466 7.14188 7.33529 7.52468 7.70768
7.88186 8.04496 8.19508 8.33097 8.45207 8.5585 8.65101 8.7307 6.68342
6.56985 6.43934 6.29323 6.13377 5.96367 5.78546 5.60098 5.4109 5.2146
5.01039 4.79595 4.56911 4.3286 4.07455 3.80859 3.53347 3.25242 3.41127
3.63978 3.85964 4.07131 4.27528 4.4721 4.66241 4.84709 5.02721 5.20406
5.37901 5.55342 5.72849 5.90522 6.08428 6.26602 6.45046 6.63729 6.82587
7.01526 7.20419 7.39105 7.57395 7.75077 7.91938 8.07779 8.22436 8.35794
8.47799 8.58452 8.67805 8.75943 6.78154 6.66922 6.53836 6.39077 6.22957
6.05845 5.8809 5.69936 5.51459 5.32537 5.12868 4.92044 4.69669 4.45492
4.19503 3.91947 3.63244 3.33877 3.49662 3.72577 3.94643 4.15937 4.3651
4.56397 4.75638 4.94291 5.12448 5.30228 5.47764 5.65192 5.82629 6.00165
6.17862 6.35746 6.53819 6.7205 6.90386 7.08746 7.27021 7.45071 7.62731
7.79814 7.96133 8.11511 8.25802 8.38904 8.50762 8.61369 8.7076 8.78999
6.86523 6.75329 6.62113 6.47122 6.30773 6.13571 5.95999 5.784 5.60879
5.43242 5.24998 5.05457 4.83916 4.59901 4.33349 4.0464 3.74445 3.43505
3.59038 3.81916 4.04002 4.25406 4.46165 4.66273 4.85719 5.04526 5.22767
5.40566 5.58069 5.7542 5.92738 6.1011 6.27586 6.45186 6.62902 6.80706
6.98549 7.16362 7.34051 7.51497 7.68556 7.85064 8.00856 8.15776 8.29693
8.42513 8.54183 8.6469 8.74054 8.82325 6.92871 6.81572 6.68084 6.52725
6.36043 6.18717 6.01417 5.84649 5.68598 5.53009 5.37141 5.19866 4.99965
4.7655 4.49449 4.19274 3.87133 3.54187 3.69249 3.91958 4.14017 4.35554
4.56562 4.7695 4.96618 5.15534 5.33764 5.51461 5.68811 5.85986 6.03117
6.20287 6.37531 6.54856 6.72241 6.89653 7.07044 7.24353 7.41499 7.58381
7.74872 7.90834 8.06117 8.20585 8.3412 8.46636 8.58082 8.68439 8.77718
8.85954 6.96619 6.85011 6.71044 6.55113 6.37907 6.20316 6.03267 5.8753
5.7348 5.60862 5.48639 5.35045 5.17995 4.95849 4.68201 4.36076 4.0134
3.65825 3.80132 4.02535 4.24565 4.46345 4.67769 4.8858 5.08521 5.27474
5.4553 5.62926 5.7994 5.968 6.13656 6.30576 6.47577 6.64639 6.81723
6.98784 7.15771 7.32625 7.49277 7.65638 7.81602 7.97047 8.11843 8.2587
8.39022 8.51221 8.62414 8.72582 8.81727 8.89873 6.97302 6.85123 6.70408
6.5361 6.35552 6.17356 6.00287 5.85532 5.7385 5.65154 5.58127 5.50122
5.37673 5.17799 4.89617 4.54873 4.16723 3.78021 3.91273 4.1328 4.35384
4.57672 4.79856 5.0138 5.2169 5.40547 5.5814 5.74918 5.91333 6.07698
6.24172 6.40797 6.57547 6.74364 6.91181 7.07934 7.24565 7.41016 7.57224
7.73112 7.88591 8.03555 8.17894 8.31499 8.44277 8.56154 8.67081 8.77034
8.86009 8.94022 6.94702 6.81658 6.65878 6.47825 6.28404 6.08951 5.91142
5.76785 5.67358 5.63266 5.63031 5.62885 5.57312 5.41119 5.12544 4.74511
4.3221 3.89894 4.01916 4.23572 4.46023 4.69307 4.9287 5.1563 5.36464
5.54949 5.7158 5.87257 6.02728 6.18396 6.34394 6.50694 6.67201 6.83801
7.00391 7.16882 7.33205 7.49302 7.65115 7.80581 7.95622 8.10149 8.24068
8.37283 8.49709 8.61278 8.7194 8.81669 8.90454 8.98308 6.88952 6.74774
6.57613 6.37857 6.16382 5.94629 5.74689 5.59238 5.51002 5.51461 5.59206
5.69031 5.7266 5.61819 5.33449 4.92116 4.4569 4.00004 4.1096 4.32537
4.55783 4.80767 5.06655 5.31502 5.53066 5.70642 5.85514 5.99466 6.1364
6.28461 6.43945 6.59938 6.76242 6.92673 7.09082 7.25358 7.41421 7.57212
7.72681 7.87775 8.02431 8.16575 8.30125 8.42996 8.5511 8.66401 8.76819
8.86333 8.94929 9.02611 6.80567 6.65083 6.46318 6.24471 6.00188 5.7477
5.5054 5.31226 5.21623 5.25405 5.41552 5.62643 5.76848 5.72709 5.46061
5.0315 4.54292 4.06634 4.1718 4.39151 4.63659 4.91013 5.20272 5.48288
5.70777 5.8663 5.98828 6.10557 6.23289 6.37295 6.52358 6.68143 6.84332
7.00666 7.16954 7.33064 7.48913 7.64446 7.79621 7.94399 8.08732 8.22557
8.35803 8.48393 8.60253 8.71316 8.8153 8.90857 8.99281 9.068 6.70366
6.53584 6.33218 6.09156 5.81578 5.51229 5.20142 4.92928 4.77558 4.82174
5.06866 5.39957 5.64673 5.6758 5.44863 5.03859 4.55839 4.08557 4.19673
4.42504 4.68423 4.98141 5.30922 5.62501 5.85932 5.99682 6.09145 6.1896
6.30659 6.44207 6.59123 6.749 6.91114 7.07449 7.23687 7.39688 7.55371
7.70693 7.85629 8.00152 8.1423 8.27812 8.40835 8.53226 8.64908 8.75813
8.85881 8.9507 9.03357 9.10736 6.59318 6.41486 6.19862 5.93989 5.63417
5.27921 4.88427 4.49508 4.23021 4.25343 4.59485 5.05684 5.39913 5.48827
5.31167 4.94894 4.50611 4.05826 4.18296 4.42159 4.6905 4.99913 5.34193
5.67322 5.9135 6.04607 6.13468 6.2304 6.34806 6.48585 6.63787 6.79831
6.9625 7.12705 7.28973 7.44923 7.6049 7.75652 7.90403 8.04739 8.18642
8.32071 8.44968 8.57257 8.68857 8.79691 8.89691 8.98807 9.07008 9.14286
6.48344 6.29939 6.07785 5.81182 5.49167 5.10559 4.64785 4.15197 3.76408
3.74936 4.18471 4.76143 5.16136 5.27531 5.1305 4.8124 4.41291 3.99767
4.13745 4.38405 4.65447 4.95652 5.28351 5.59728 5.83811 5.99249 6.10638
6.22159 6.35311 6.501 6.66055 6.82654 6.9946 7.16154 7.32533 7.48491
7.63991 7.79042 7.93667 8.07889 8.21705 8.35084 8.47967 8.60271 8.71903
8.82771 8.92796 9.01917 9.10097 9.17323 6.38145 6.19784 5.98079 5.72347
5.41563 5.04325 4.59562 4.09892 3.70024 3.69028 4.15066 4.72288 5.07755
5.14505 4.98466 4.68157 4.31008 3.92135 4.07177 4.32154 4.58649 4.87111
5.16823 5.4525 5.69061 5.87385 6.02527 6.17118 6.32463 6.48788 6.65836
6.83212 7.00553 7.17586 7.34147 7.50164 7.65641 7.80626 7.95184 8.09366
8.23191 8.36636 8.49633 8.62084 8.73877 8.84899 8.95055 9.04271 9.12503
9.19736 6.29103 6.11383 5.91076 5.67817 5.41064 5.1019 4.75254 4.39752
4.15915 4.22903 4.6114 5.01186 5.19203 5.13168 4.90389 4.58136 4.21643
3.84254 3.99687 4.24512 4.50135 4.76758 5.03823 5.299 5.53363 5.73716
5.91926 6.0938 6.26968 6.44957 6.63221 6.8148 6.99442 7.16882 7.33674
7.49788 7.65272 7.80226 7.94765 8.08982 8.22918 8.36554 8.49807 8.62553
8.7465 8.85957 8.96358 9.05765 9.14127 9.21429 6.21289 6.04619 5.86328
5.66535 5.45466 5.23685 5.02814 4.87061 4.8432 5.00995 5.28718 5.45981
5.41197 5.18753 4.86805 4.50757 4.13528 3.76709 3.92004 4.16369 4.4108
4.66206 4.91395 5.15918 5.39021 5.60451 5.806 6.00131 6.19541 6.39001
6.58413 6.77546 6.96149 7.14026 7.31076 7.47303 7.62804 7.77741 7.92295
8.06611 8.20761 8.34721 8.48384 8.61585 8.74137 8.85866 8.96628 9.06323
9.14893 9.22326 6.14567 5.99079 5.8292 5.66674 5.51233 5.38017 5.29378
5.28911 5.40198 5.61586 5.80353 5.80077 5.57698 5.2256 4.83387 4.44142
4.06081 3.69539 3.84475 4.08271 4.32157 4.56142 4.80033 5.0349 5.2619
5.48036 5.69207 5.90013 6.10687 6.31276 6.5165 6.71572 6.90792 7.09109
7.26423 7.42759 7.58262 7.73169 7.87747 8.02214 8.16675 8.31099 8.45332
8.5915 8.72311 8.84593 8.95827 9.05897 9.14744 9.22363 6.08748 5.94314
5.79956 5.66568 5.55395 5.48105 5.46802 5.53614 5.68933 5.87788 5.98012
5.87956 5.58163 5.18408 4.76793 4.36645 3.98636 3.62607 3.77235 4.00498
4.23678 4.46764 4.69672 4.92276 5.14477 5.36287 5.57828 5.79263 6.00681
6.2204 6.43156 6.6376 6.83561 7.02317 7.19898 7.36328 7.51797 7.66634
7.8122 7.9587 8.10732 8.25754 8.40714 8.55305 8.69211 8.82161 8.93956
9.04471 9.13651 9.215 6.03726 5.90073 5.76949 5.65375 5.56654 5.52258
5.53558 5.61173 5.73615 5.85507 5.8787 5.73678 5.44107 5.06287 4.66531
4.27833 3.90975 3.55889 3.70384 3.93212 4.15779 4.38087 4.60131 4.81909
5.03462 5.24885 5.46315 5.67878 5.89612 6.11428 6.33098 6.543 6.74674
6.939 7.1178 7.28307 7.43709 7.58424 7.72983 7.8783 8.03167 8.18902
8.3472 8.50205 8.64957 8.78649 8.91059 9.02059 9.11602 9.19707 5.99542
5.86399 5.73957 5.63224 5.55387 5.51566 5.52404 5.57481 5.64586 5.69253
5.65747 5.5026 5.23668 4.90274 4.54357 4.18411 3.83413 3.49574 3.64091
3.86559 4.08545 4.30086 4.51238 4.72093 4.92785 5.13493 5.34414 5.55701
5.77409 5.99441 6.21542 6.43325 6.64335 6.84137 7.0242 7.19112 7.34462
7.49031 7.63533 7.78577 7.9443 8.10947 8.27691 8.44123 8.59748 8.74194
8.8722 8.98702 9.08607 9.16972 5.9637 5.83584 5.71469 5.60938 5.52996
5.48441 5.47423 5.49032 5.51064 5.50201 5.42952 5.27276 5.03674 4.74544
4.42549 4.09564 3.76579 3.44023 3.58611 3.80717 4.0207 4.22748 4.42865
4.62586 4.82131 5.01772 5.21797 5.42448 5.63846 5.85928 6.08421 6.30865
6.52679 6.73274 6.92185 7.09233 7.24661 7.39146 7.53609 7.68849 7.85208
8.02484 8.20111 8.37426 8.5385 8.68973 8.82548 8.94459 9.04689 9.13294
5.94427 5.8201 5.70126 5.59551 5.511 5.45322 5.42115 5.40469 5.38501
5.33843 5.24328 5.08791 4.8746 4.61617 4.32835 4.02399 3.71168 3.39677
3.54259 3.75904 3.96474 4.16091 4.34922 4.53195 4.71216 4.89366 5.08069
5.27715 5.48551 5.70586 5.9353 6.16825 6.39734 6.61471 6.81381 6.99141
7.14949 7.29569 7.44109 7.59556 7.76339 7.9422 8.12533 8.30519 8.47542
8.63171 8.77156 8.89393 8.99879 9.08682 5.93868 5.8197 5.70433 5.59874
5.50915 5.43917 5.38683 5.34308 5.29319 5.22051 5.11111 4.95761 4.76045
4.52588 4.26232 3.97762 3.6783 3.37001 3.51392 3.72373 3.91909 4.10168
4.27363 4.43776 4.59793 4.75925 4.9279 5.11007 5.31032 5.52982 5.76541
6.01004 6.25414 6.48755 6.70159 6.89138 7.05808 7.20958 7.35815 7.51512
7.68571 7.86773 8.05426 8.23737 8.41054 8.56936 8.71138 8.8356 8.94207
9.0315 5.94728 5.83571 5.72604 5.62275 5.53011 5.4502 5.38083 5.31489
5.24171 5.15 5.03077 4.87905 4.69406 4.47777 4.23309 3.96313 3.67182
3.36483 3.50395 3.70399 3.88547 4.05066 4.202 4.3426 4.47692 4.61156
4.75534 4.91802 5.10745 5.32643 5.57106 5.83173 6.09582 6.35042 6.58471
6.79228 6.97325 7.13507 7.29017 7.45053 7.62228 7.80416 7.98998 8.17231
8.34487 8.50339 8.64543 8.76996 8.87699 8.9672 5.96909 5.86731 5.76587
5.66746 5.57441 5.48743 5.40447 5.32045 5.2285 5.12176 4.99499 4.84521
4.67111 4.47153 4.24429 3.98673 3.69889 3.3866 3.51672 3.70254 3.86564
4.00902 4.13517 4.24696 4.34903 4.44939 4.56036 4.69706 4.8727 5.0924
5.35041 5.63269 5.92209 6.20255 6.46142 6.69124 6.89125 7.06798 7.23302
7.39812 7.57012 7.74926 7.93095 8.10902 8.27789 8.43357 8.57368 8.69712
8.80376 8.89417 6.00224 5.91262 5.82195 5.73109 5.64042 5.54929 5.4557
5.35653 5.24833 5.1283 4.99482 4.84726 4.68481 4.50438 4.29828 4.05504
3.7672 3.44102 3.55578 3.72134 3.8608 3.97795 4.07479 4.15318 4.21708
4.27545 4.34476 4.44803 4.60682 4.82962 5.1068 5.41679 5.73609 6.04529
6.33068 6.5846 6.80593 7.00018 7.17757 7.3489 7.52139 7.69685 7.87273
8.04453 8.20775 8.3589 8.49571 8.61703 8.72258 8.81278 6.04442 5.96939
5.89232 5.8121 5.72696 5.63458 5.5327 5.41982 5.29579 5.16192 5.02058
4.8744 4.72474 4.56854 4.393 4.17245 3.88297 3.53139 3.62169 3.75983
3.87067 3.95819 4.02322 4.06586 4.08833 4.09946 4.11995 4.1831 4.32269
4.55174 4.85368 5.19576 5.54667 5.88409 6.1944 6.4708 6.71248 6.92418
7.11459 7.29324 7.46727 7.6397 7.8099 7.97514 8.13214 8.27809 8.41096
8.52964 8.63373 8.72347 6.09294 6.03525 5.97527 5.90978 5.8343 5.74404
5.6356 5.50868 5.36661 5.21539 5.0621 4.91345 4.77447 4.64509 4.51051
4.32658 4.03731 3.64876 3.7064 3.81275 3.89259 3.94937 3.98289 3.99144
3.97482 3.94052 3.9123 3.93424 4.05455 4.29132 4.61868 4.99075 5.36874
5.72872 6.05823 6.35204 6.61008 6.8366 7.03884 7.22496 7.40157 7.57239
7.7382 7.89779 8.0491 8.19006 8.31904 8.43502 8.53759 8.62687 6.14454
6.10727 6.06885 6.02374 5.96386 5.88025 5.76668 5.62336 5.45788 5.28231
5.10929 4.94973 4.81208 4.69994 4.60028 4.45535 4.17303 3.75513 3.78871
3.86985 3.92143 3.94925 3.95489 3.93603 3.89044 3.82373 3.76075 3.75247
3.85756 4.09764 4.43949 4.82796 5.21979 5.59082 5.92999 6.23346 6.50176
6.73861 6.94997 7.14254 7.32214 7.49261 7.65556 7.81091 7.95763 8.09438
8.21996 8.33356 8.4348 8.52376 6.19479 6.18098 6.16929 6.15194 6.11612
6.04588 5.92887 5.76464 5.56685 5.35645 5.15291 4.9704 4.818 4.69875
4.59904 4.46179 4.19631 3.79784 3.84552 3.92073 3.94997 3.95244 3.93679
3.90168 3.84374 3.7674 3.6965 3.68109 3.77896 4.01139 4.34554 4.72687
5.11271 5.47948 5.81667 6.12081 6.39233 6.63418 6.85098 7.04802 7.23012
7.40083 7.5621 7.71454 7.85786 7.99134 8.11422 8.22593 8.32618 8.41504
6.23761 6.24914 6.26869 6.2871 6.28602 6.23868 6.12091 5.92935 5.68741
5.42987 5.18475 4.96787 4.78551 4.63586 4.50275 4.34348 4.1031 3.77018
3.86853 3.95369 3.96496 3.94805 3.92115 3.88353 3.8315 3.76906 3.71728
3.71781 3.81679 4.03147 4.33682 4.68855 5.04951 5.39751 5.72178 6.01816
6.28621 6.52776 6.74609 6.94508 7.12848 7.2993 7.45946 7.6099 7.75078
7.88187 8.00275 8.11308 8.21272 8.30173 6.26512 6.30091 6.3527 6.41163
6.45448 6.44029 6.32553 6.10029 5.80316 5.48914 5.19598 4.9392 4.72032
4.53247 4.35991 4.17692 3.95752 3.68566 3.83282 3.9336 3.93996 3.91976
3.89689 3.87118 3.83971 3.80661 3.78895 3.81699 3.92218 4.11667 4.3848
4.69586 5.02106 5.34092 5.64455 5.92679 6.18604 6.42284 6.63911 6.83747
7.02063 7.19091 7.35 7.49887 7.63795 7.76728 7.88673 7.99615 8.09551
8.18492 6.26869 6.32287 6.40063 6.49486 6.57976 6.60085 6.49151 6.23235
5.88024 5.51272 5.17578 4.88287 4.63081 4.40943 4.20477 4.00093 3.78318
3.53295 3.69372 3.81813 3.85195 3.85583 3.85527 3.85387 3.85167 3.85348
3.87233 3.92849 4.0416 4.2196 4.45382 4.72502 5.01284 5.30157 5.58104
5.84557 6.09253 6.32135 6.53276 6.72825 6.9096 7.07846 7.23614 7.38353
7.52111 7.64909 7.76749 7.87634 7.97567 8.06565 6.24117 6.30289 6.39152
6.50113 6.60535 6.64327 6.53541 6.25645 5.87355 5.47618 5.11362 4.79761
4.52251 4.27713 4.04893 3.8256 3.59469 3.33915 3.48888 3.63721 3.71633
3.76179 3.79551 3.82544 3.85536 3.89095 3.94215 4.02219 4.14309 4.30992
4.51822 4.75653 5.01129 5.2707 5.52611 5.77192 6.00498 6.22391 6.42854
6.61947 6.79768 6.96422 7.12001 7.26577 7.40192 7.52873 7.64633 7.7548
7.85427 7.94492 6.17955 6.23555 6.3153 6.41181 6.49887 6.51984 6.40411
6.13031 5.75798 5.36771 5.00578 4.68439 4.39916 4.1403 3.89705 3.65893
3.41523 3.15388 3.29138 3.45442 3.57004 3.65483 3.72361 3.78523 3.84556
3.91066 3.98827 4.08723 4.21508 4.37518 4.56535 4.77887 5.00702 5.24135
5.47497 5.70291 5.92194 6.13024 6.32705 6.51232 6.68641 6.84988 7.00331
7.14718 7.28183 7.40752 7.52439 7.6326 7.73227 7.82362 5.07198 4.93834
4.79746 4.64887 4.49195 4.32601 4.15097 3.96985 3.7935 3.63685 3.49743
3.35814 3.20942 3.05022 2.88205 2.70663 2.52537 2.33947 2.47062 2.6546
2.83445 3.01005 3.18156 3.3495 3.51465 3.67805 3.84085 4.00426 4.16939
4.33717 4.50823 4.68292 4.86127 5.04301 5.22765 5.41447 5.60264 5.79115
5.97888 6.16455 6.34673 6.52384 6.69421 6.85618 7.00823 7.14917 7.27825
7.39524 7.50036 7.59426 5.16286 5.02914 4.88798 4.73898 4.58164 4.41549
4.24081 4.0608 3.88515 3.72597 3.58108 3.43634 3.28311 3.11996 2.94799
2.76864 2.58322 2.39285 2.52648 2.71369 2.89613 3.07361 3.24633 3.41487
3.58014 3.74335 3.90589 4.06918 4.23452 4.40304 4.57551 4.75239 4.93375
5.11936 5.30871 5.50107 5.69552 5.891 6.08623 6.27976 6.46989 6.65467
6.83201 6.99977 7.15604 7.29936 7.42891 7.54459 7.64693 7.73693 5.25707
5.12372 4.98288 4.83432 4.67786 4.51356 4.34236 4.16747 3.99554 3.83315
3.67879 3.52432 3.3636 3.19472 3.01791 2.83403 2.64404 2.4489 2.58508
2.77566 2.96078 3.1402 3.31411 3.48317 3.64843 3.81131 3.9734 4.13635
4.30169 4.47073 4.6444 4.82327 5.0075 5.19689 5.39095 5.58893 5.78989
5.99267 6.19589 6.39789 6.59668 6.78989 6.97487 7.14891 7.30956 7.45503
7.58445 7.69795 7.79648 7.88155 5.35455 5.22194 5.08183 4.93421 4.77923
4.61737 4.4499 4.27943 4.10981 3.94401 3.78116 3.61724 3.44854 3.27328
3.0911 2.9023 2.70745 2.50729 2.64614 2.84022 3.02814 3.20956 3.38469
3.55426 3.71948 3.88194 4.04346 4.20593 4.37109 4.54043 4.71507 4.89569
5.08256 5.27553 5.47415 5.67769 5.88517 6.09539 6.30687 6.51776 6.72574
6.92797 7.12115 7.30183 7.46692 7.6142 7.7428 7.85319 7.9469 8.02606
5.45524 5.3236 5.18443 5.03787 4.88429 4.72438 4.55936 4.3911 4.22171
4.05254 3.88314 3.71157 3.53574 3.35429 3.16664 2.97275 2.77286 2.56753
2.70914 2.90686 3.09768 3.28121 3.45764 3.62778 3.79299 3.95505 4.11599
4.27791 4.44276 4.61223 4.78759 4.96968 5.15887 5.3551 5.55798 5.76678
5.98055 6.19805 6.41772 6.63753 6.85486 7.06635 7.26798 7.45544 7.62484
7.77352 7.9006 8.00703 8.09508 8.16764 5.55907 5.42854 5.29034 5.14469
4.99209 4.83325 4.66922 4.50129 4.33072 4.1582 3.98356 3.80584 3.62385
3.43665 3.24364 3.0446 2.83958 2.62897 2.77339 2.97484 3.16868 3.35443
3.53229 3.70314 3.86848 4.03027 4.19072 4.35212 4.51662 4.68607 4.86192
5.04515 5.23626 5.4353 5.64193 5.85548 6.075 6.29923 6.52655 6.75479
6.98103 7.20142 7.4112 7.60514 7.77848 7.92806 8.05307 8.15503 8.23703
8.30279 5.66601 5.53667 5.39936 5.25438 5.10222 4.94359 4.77937 4.61052
4.43788 4.26195 4.08271 3.89968 3.71219 3.51958 3.32131 3.11709 2.90684
2.69085 2.83807 3.04328 3.2402 3.4283 3.60776 3.77955 3.94528 4.10705
4.26723 4.42825 4.59243 4.76177 4.9379 5.12193 5.31449 5.51576 5.72546
5.94297 6.16735 6.39731 6.63119 6.86669 7.10064 7.32875 7.54559 7.74507
7.92162 8.0716 8.1943 8.29184 8.36812 8.42764 5.77612 5.64802 5.5115
5.36688 5.21467 5.05553 4.89025 4.71963 4.54435 4.36483 4.18119 3.99321
3.80051 3.60261 3.39906 3.18954 2.97393 2.75245 2.90235 3.11126 3.31129
3.50185 3.68315 3.85618 4.02265 4.18476 4.34499 4.50589 4.66988 4.8391
5.01531 5.19979 5.3933 5.59611 5.80804 6.02848 6.2565 6.49077 6.72954
6.97041 7.21001 7.44373 7.66562 7.86897 8.0476 8.19753 8.31815 8.41207
8.48384 8.53852 5.8895 5.76269 5.62687 5.48235 5.32965 5.16944 5.00246
4.82946 4.65107 4.46773 4.27964 4.08675 3.88885 3.68557 3.47657 3.26152
3.04033 2.81319 2.96557 3.17802 3.38112 3.57426 3.75762 3.93226 4.09991
4.26283 4.42354 4.58465 4.74866 4.91782 5.094 5.27859 5.47251 5.67611
5.88928 6.11144 6.34159 6.57837 6.81992 7.0637 7.30621 7.54263 7.7668
7.97171 8.15095 8.30045 8.41968 8.51148 8.58072 8.63268 6.00628 5.88086
5.74566 5.60102 5.44748 5.28574 5.11657 4.94071 4.75883 4.57141 4.3787
4.18077 3.97748 3.7686 3.55383 3.33294 3.10586 2.87282 3.02738 3.24313
3.44922 3.645 3.83068 4.00731 4.17663 4.34086 4.50255 4.6643 4.82863
4.99784 5.1739 5.35833 5.55211 5.75573 5.96908 6.19159 6.42222 6.65949
6.90143 7.14538 7.38773 7.62362 7.84695 8.05087 8.22917 8.37795 8.49671
8.58823 8.65726 8.70898 6.1266 6.00268 5.86808 5.72313 5.56845 5.4048
5.23303 5.05397 4.8683 4.67657 4.47906 4.27589 4.067 3.8522 3.63129
3.40413 3.17077 2.93154 3.08792 3.30669 3.51561 3.71408 3.9023 4.08129
4.25273 4.41882 4.58199 4.74482 4.90981 5.07926 5.2552 5.4392 5.63236
5.8352 6.04765 6.26912 6.4985 6.73423 6.97419 7.21563 7.45489 7.68725
7.9069 8.10754 8.28353 8.43133 8.55047 8.64338 8.71433 8.76811 6.25048
6.12825 5.99423 5.84882 5.69273 5.52685 5.35219 5.16966 4.98004 4.78388
4.58149 4.37297 4.15827 3.93726 3.70982 3.47594 3.23584 2.99001 3.14786
3.36934 3.58092 3.78205 3.97296 4.1546 4.3286 4.49699 4.66214 4.8265
4.99249 5.16241 5.33826 5.52166 5.71373 5.91504 6.12555 6.34463 6.57114
6.80342 7.03929 7.27592 7.50973 7.73622 7.95009 8.1458 8.31847 8.46506
8.58509 8.68051 8.75491 8.81242 6.37778 6.25745 6.12403 5.978 5.82024
5.65188 5.4741 5.28801 5.09445 4.89397 4.68684 4.47305 4.25251 4.02509
3.79077 3.54971 3.30234 3.04941 3.20836 3.43226 3.64628 3.84999 4.04364
4.22814 4.40498 4.57606 4.74359 4.90986 5.0772 5.2478 5.42363 5.60628
5.79689 5.99601 6.20363 6.41911 6.64131 6.86854 7.09861 7.32872 7.55542
7.77454 7.98141 8.17127 8.34005 8.48521 8.60625 8.70463 8.78319 8.84536
6.50801 6.3898 6.25699 6.11017 5.95049 5.77941 5.59843 5.40888 5.21169
5.00737 4.796 4.57739 4.35127 4.11744 3.87596 3.62722 3.37195 3.11126
3.271 3.49701 3.71322 3.91935 4.11569 4.30311 4.48295 4.65697 4.82715
4.99563 5.16458 5.33606 5.51194 5.69375 5.88258 6.07898 6.28292 6.49381
6.71055 6.93149 7.15453 7.37699 7.59564 7.8067 8.00608 8.18977 8.35443
8.49794 8.61979 8.72101 8.80376 8.87076 6.64012 6.52427 6.39202 6.24417
6.08228 5.9083 5.7242 5.5316 5.33154 5.12438 4.90988 4.68746 4.45646
4.21651 3.9677 3.71072 3.44675 3.17739 3.33754 3.56534 3.78343 3.99172
4.1906 4.38088 4.56376 4.7408 4.91378 5.08464 5.25535 5.42784 5.60382
5.78472 5.97156 6.16482 6.36452 6.57011 6.78056 6.99441 7.20967 7.42388
7.63409 7.83692 8.02883 8.20642 8.36692 8.50855 8.63081 8.73437 8.82084
8.89232 6.77223 6.6589 6.52706 6.37785 6.21341 6.0364 5.84947 5.65467
5.45315 5.24498 5.02936 4.80496 4.57046 4.32506 4.06885 3.80292 3.52913
3.2498 3.40987 3.63904 3.85858 4.06871 4.26988 4.46286 4.6487 4.82872
5.00448 5.17771 5.35021 5.52371 5.69978 5.87972 6.06443 6.25434 6.44947
6.64934 6.85309 7.05941 7.26657 7.47237 7.67416 7.86895 8.05364 8.22534
8.3817 8.52121 8.64336 8.74856 8.83797 8.91321 6.90126 6.79045 6.65872
6.50764 6.3402 6.1601 5.97093 5.77538 5.57471 5.36857 5.15517 4.93193
4.6963 4.44668 4.18306 3.90712 3.6218 3.33062 3.48983 3.71973 3.94018
4.15172 4.35491 4.55041 4.73904 4.92188 5.10024 5.27565 5.44975 5.62412
5.80019 5.9791 6.16162 6.34813 6.53862 6.73271 6.92967 7.12845 7.32755
7.52508 7.7187 7.90577 8.08358 8.24961 8.40184 8.53895 8.66041 8.76644
8.85788 8.93594 7.02257 6.91398 6.78176 6.62809 6.45709 6.27389 6.08343
5.88933 5.69306 5.49364 5.28779 5.0708 4.83796 4.58614 4.31506 4.02739
3.72791 3.42205 3.5791 3.80876 4.0294 4.24191 4.44689 4.64477 4.83604
5.02142 5.202 5.37916 5.55444 5.72934 5.90518 6.08296 6.26331 6.44652
6.63254 6.82106 7.0115 7.20302 7.39439 7.584 7.76984 7.94957 8.12081
8.28133 8.42937 8.56372 8.68388 8.78992 8.88242 8.9623 7.12973 7.02259
6.8889 6.73158 6.55625 6.36995 6.17946 5.9898 5.80296 5.61722 5.4271
5.22446 5.00075 4.74998 4.47119 4.16883 3.85093 3.52614 3.67895 3.90694
4.12688 4.34003 4.54682 4.74718 4.94101 5.12859 5.31075 5.48888 5.66458
5.8394 6.0146 6.19108 6.3693 6.54943 6.73135 6.91475 7.09919 7.28397
7.46814 7.65033 7.82882 8.00158 8.1665 8.3216 8.46531 8.59655 8.7148
8.82003 8.91266 8.99335 7.21467 7.10752 6.97083 6.80842 6.62767 6.43799
6.24873 6.06706 5.89617 5.73379 5.57155 5.39593 5.19163 4.9471 4.65984
4.33763 3.99443 3.64442 3.78978 4.01414 4.23255 4.44642 4.65562 4.85907
5.05562 5.24488 5.42758 5.60537 5.78024 5.95399 6.12793 6.30282 6.47896
6.65629 6.83458 7.01348 7.19256 7.37129 7.54888 7.72423 7.89584 8.06197
8.22077 8.3705 8.50974 8.63751 8.75329 8.857 8.94888 9.02946 7.2686
7.15913 7.01727 6.84773 6.65981 6.4657 6.2781 6.10758 5.95992 5.83331
5.71615 5.58696 5.41868 5.1888 4.8913 4.54027 4.16095 3.77684 3.91028
4.12874 4.34519 4.56083 4.77424 4.98238 5.1822 5.37233 5.55373 5.72898
5.90105 6.07228 6.24408 6.41702 6.59108 6.76593 6.94111 7.11614 7.29059
7.46398 7.63567 7.80474 7.96995 8.12981 8.28271 8.42713 8.56181 8.68583
8.79871 8.90028 8.99071 9.07036 7.28375 7.1688 7.01889 6.83941 6.64139
6.43994 6.25198 6.09331 5.97486 5.89775 5.84801 5.79349 5.68751 5.4861
5.1749 4.7804 4.3492 3.91983 4.03613 4.24676 4.46203 4.68235 4.90396
5.1202 5.32442 5.5138 5.69051 5.85957 6.02588 6.19263 6.36122 6.53179
6.70382 6.87651 7.04907 7.22085 7.39133 7.56005 7.72647 7.88985 8.04916
8.20315 8.35044 8.48971 8.61984 8.74 8.8497 8.94873 9.03716 9.11526