# vtk DataFile Version 3.0
vtk output
ASCII
DATASET RECTILINEAR_GRID
FIELD FieldData 2
base_index 1 3 int
0 0 0
avtOriginalBounds 1 6 double
-10 10 -10 10 -10 10
DIMENSIONS 50 50 50
X_COORDINATES 50 float
-10 -9.59184 -9.18367 -8.77551 -8.36735 -7.95918 -7.55102 -7.14286 -6.73469
-6.32653 -5.91837 -5.5102 -5.10204 -4.69388 -4.28571 -3.87755 -3.46939 -3.06122
-2.65306 -2.2449 -1.83673 -1.42857 -1.02041 -0.612245 -0.204082 0.204082 0.612245
1.02041 1.42857 1.83673 2.2449 2.65306 3.06122 3.46939 3.87755 4.28572
4.69388 5.10204 5.5102 5.91837 6.32653 6.73469 7.14286 7.55102 7.95918
8.36735 8.77551 9.18367 9.59184 10
Y_COORDINATES 50 float
-10 -9.59184 -9.18367 -8.77551 -8.36735 -7.95918 -7.55102 -7.14286 -6.73469
-6.32653 -5.91837 -5.5102 -5.10204 -4.69388 -4.28571 -3.87755 -3.46939 -3.06122
-2.65306 -2.2449 -1.83673 -1.42857 -1.02041 -0.612245 -0.204082 0.204082 0.612245
1.02041 1.42857 1.83673 2.2449 2.65306 3.06122 3.46939 3.87755 4.28572
4.69388 5.10204 5.5102 5.91837 6.32653 6.73469 7.14286 7.55102 7.95918
8.36735 8.77551 9.18367 9.59184 10
Z_COORDINATES 50 float
-10 -9.59184 -9.18367 -8.77551 -8.36735 -7.95918 -7.55102 -7.14286 -6.73469
-6.32653 -5.91837 -5.5102 -5.10204 -4.69388 -4.28571 -3.87755 -3.46939 -3.06122
-2.65306 -2.2449 -1.83673 -1.42857 -1.02041 -0.612245 -0.204082 0.204082 0.612245
1.02041 1.42857 1.83673 2.2449 2.65306 3.06122 3.46939 3.87755 4.28572
4.69388 5.10204 5.5102 5.91837 6.32653 6.73469 7.14286 7.55102 7.95918
8.36735 8.77551 9.18367 9.59184 10
CELL_DATA 117649
POINT_DATA 125000
SCALARS temp float
LOOKUP_TABLE default
3.33654 3.19125 3.04068 2.88484 2.72376 2.55768 2.38737 2.2149 2.27322
2.46315 2.6634 2.86975 3.07726 3.28312 3.48604 3.68532 3.88044 4.0709
4.2563 4.43633 4.61092 4.78026 4.94484 5.10544 5.26312 5.41909 5.57466
5.73113 5.88963 6.05108 6.2161 6.38498 6.55768 6.73387 6.91296 7.09414
7.27641 7.45863 7.63951 7.8176 7.99133 8.15901 8.31895 8.46947 8.60917
8.73693 8.85214 8.95464 9.04475 9.12317 3.39475 3.24834 3.09646 2.93913
2.77645 2.6087 2.43671 2.26251 2.32374 2.51862 2.72297 2.93319 3.14477
3.35494 3.56226 3.76587 3.96508 4.15923 4.34776 4.53026 4.70659 4.87691
5.04177 5.20205 5.35897 5.51396 5.66855 5.82424 5.98239 6.14408 6.31007
6.48074 6.65612 6.83587 7.01939 7.20581 7.39407 7.5829 7.77084 7.95625
8.13726 8.31184 8.47788 8.63334 8.77645 8.90592 9.02106 9.12185 9.20886
9.28309 3.45497 3.30768 3.15478 2.99637 2.83264 2.66403 2.49145 2.31665
2.38219 2.58271 2.79052 3.00332 3.2178 3.43147 3.64272 3.85042 4.05363
4.25147 4.44317 4.62818 4.80624 4.9775 5.14253 5.30235 5.45833 5.61212
5.76547 5.92012 6.07764 6.2393 6.406 6.57823 6.75608 6.93925 7.12712
7.3188 7.51315 7.7088 7.90414 8.09727 8.28604 8.468 8.64058 8.80124
8.9478 9.07872 9.19328 9.29165 9.37474 9.44398 3.51716 3.36917 3.21545
3.05618 2.89167 2.72245 2.54941 2.37391 2.44376 2.65019 2.86183 3.07739
3.29469 3.51167 3.7267 3.93842 4.14562 4.34718 4.5421 4.72966 4.90949
5.08168 5.24685 5.40613 5.56106 5.71351 5.86545 6.01887 6.17552 6.33688
6.50401 6.6775 6.85753 7.04386 7.23586 7.43264 7.63299 7.83545 8.03827
8.23933 8.43612 8.62576 8.80512 8.9711 9.12103 9.25306 9.3665 9.46175
9.54017 9.6037 3.58124 3.43267 3.27822 3.11813 2.95279 2.78276 2.60882
2.43194 2.50556 2.7179 2.93402 3.15314 3.3738 3.59438 3.81331 4.0291
4.24034 4.44567 4.64388 4.83405 5.01568 5.18885 5.35419 5.51294 5.66682
5.81789 5.96835 6.1204 6.27601 6.43684 6.60409 6.77851 6.96035 7.14943
7.34517 7.54667 7.75267 7.96166 8.17172 8.38052 8.58523 8.7825 8.9686
9.13979 9.29284 9.4256 9.53739 9.62895 9.70216 9.75953 3.64713 3.49803
3.34285 3.18186 3.01547 2.84423 2.66879 2.48988 2.56677 2.78492 3.00599
3.22938 3.45403 3.67862 3.90167 4.12165 4.33698 4.54611 4.74763 4.94045
5.12397 5.29818 5.46379 5.62212 5.77506 5.92483 6.07386 6.22452 6.37898
6.53907 6.70615 6.88111 7.0643 7.25561 7.45452 7.66011 7.87113 8.08596
8.3026 8.51851 8.73053 8.93486 9.12719 9.30312 9.45885 9.59191 9.70166
9.78923 9.85706 9.90824 3.71477 3.56516 3.40918 3.24713 3.07942 2.90656
2.72912 2.54767 2.62746 2.85133 3.07758 3.30569 3.53478 3.76371 3.99107
4.2153 4.43471 4.64761 4.85242 5.0479 5.23334 5.40872 5.57476 5.73288
5.88509 6.03378 6.18153 6.33089 6.48418 6.64338 6.81003 6.98511 7.16911
7.36201 7.56332 7.77213 7.98719 8.20681 8.42887 8.65067 8.86878 9.07899
9.27645 9.4562 9.6139 9.74683 9.8544 9.9381 10.0009 10.0465 3.78411
3.634 3.47714 3.31386 3.14456 2.96973 2.78989 2.60554 2.68798 2.91747
3.149 3.38206 3.61584 3.84927 4.081 4.30943 4.53282 4.74935 4.95733
5.15541 5.34281 5.51949 5.68617 5.84437 5.99619 6.14413 6.29088 6.43913
6.59131 6.74956 6.91551 7.09031 7.27454 7.46826 7.67103 7.88198 8.0998
8.32275 8.54861 8.77452 8.99685 9.21107 9.41198 9.59414 9.75287 9.88526
9.99079 10.0712 10.13 10.1711 3.85512 3.70451 3.54671 3.38203 3.21091
3.03382 2.85128 2.66377 2.74869 2.98374 3.22058 3.45868 3.69724 3.9352
4.17123 4.40371 4.63084 4.85076 5.0617 5.26225 5.4516 5.62969 5.79728
5.95591 6.10774 6.25535 6.40149 6.54891 6.70014 6.85741 7.02247 7.19657
7.38041 7.57412 7.77731 7.98911 8.20816 8.43268 8.66033 8.88814 9.11231
9.32817 9.5303 9.71309 9.87173 10.0032 10.1071 10.1854 10.2415 10.2798
3.92777 3.77668 3.61787 3.45167 3.27853 3.09896 2.91348 2.7226 2.80992
3.05051 3.29268 3.53586 3.77921 4.02167 4.26185 4.49813 4.72871 4.95168
5.16527 5.36809 5.55933 5.73892 5.90766 6.0671 6.2194 6.36715 6.51311
6.66005 6.81056 6.96689 7.1309 7.30392 7.48674 7.67957 7.88205 8.09329
8.31192 8.53605 8.76328 8.99053 9.21394 9.42882 9.62977 9.81128 9.96864
10.099 10.2018 10.2791 10.3343 10.3717 4.00199 3.85045 3.69059 3.52276
3.34745 3.16521 2.97663 2.78224 2.87194 3.11811 3.3657 3.61404 3.86224
4.10914 4.35333 4.59317 4.82683 5.05247 5.26836 5.47318 5.66616 5.8473
6.0174 6.17799 6.3312 6.47956 6.6258 6.77264 6.92265 7.07814 7.24098
7.41258 7.59379 7.78486 7.98547 8.19473 8.41122 8.63301 8.8576 9.0819
9.30204 9.51345 9.71098 9.88943 10.0444 10.1733 10.2756 10.3531 10.409
10.4473 4.07762 3.9257 3.76477 3.59522 3.41761 3.23258 3.04079 2.84281
2.93495 3.18687 3.44008 3.69379 3.94699 4.19842 4.44657 4.68975 4.92619
5.1541 5.3719 5.57838 5.77291 5.95555 6.12713 6.28912 6.4436 6.59299
6.7399 6.887 7.03678 7.19152 7.35311 7.52297 7.702 7.89049 8.08814
8.29405 8.50679 8.72439 8.94435 9.16358 9.37832 9.58422 9.77651 9.9505
10.1023 10.2295 10.3316 10.4102 10.468 10.5085 4.15435 4.00213 3.84012
3.66879 3.48879 3.30089 3.10584 2.90431 2.99906 3.25707 3.51629 3.7758
4.0344 4.29063 4.54286 4.78934 5.02831 5.25813 5.47742 5.68517 5.88096
6.06494 6.23798 6.40151 6.55749 6.7082 6.85611 7.00374 7.1535 7.30758
7.46784 7.6357 7.81205 7.9972 8.19088 8.39221 8.59977 8.81162 9.0253
9.23778 9.44551 9.64444 9.83027 9.99887 10.1468 10.2721 10.3741 10.4542
10.5146 10.5581 4.23164 4.0792 3.91611 3.74294 3.5605 3.36971 3.17147
2.96653 3.06424 3.32888 3.59481 3.86088 4.12561 4.38726 4.64395 4.89384
5.1352 5.3666 5.58692 5.79549 5.99211 6.17715 6.35149 6.51654 6.67409
6.82626 6.97533 7.12366 7.27351 7.42697 7.58582 7.75143 7.92466 8.10584
8.29471 8.49043 8.69166 8.89653 9.10267 9.30723 9.5069 9.69799 9.87668
10.0394 10.1831 10.3062 10.4081 10.4896 10.5527 10.5996 4.30862 4.15604
3.99186 3.81679 3.63187 3.43824 3.237 3.029 3.13024 3.40235 3.67609
3.94996 4.22205 4.49016 4.75203 5.00565 5.24935 5.48195 5.70275 5.91151
6.10842 6.29406 6.4694 6.63577 6.7948 6.94841 7.09865 7.24769 7.39762
7.55039 7.7077 7.87081 8.04057 8.21727 8.40068 8.59005 8.7841 8.98112
9.17891 9.37485 9.56588 9.74872 9.91997 10.0765 10.2159 10.3365 10.4379
10.5206 10.5861 10.6362 4.38393 4.23125 4.06593 3.88889 3.70148 3.50515
3.30128 3.09083 3.19643 3.47729 3.76049 4.04407 4.32543 4.60162 4.86981
5.12765 5.37359 5.60686 5.82737 6.0355 6.23195 6.4176 6.5935 6.76087
6.92115 7.07598 7.2272 7.37675 7.52656 7.67846 7.83401 7.9944 8.16039
8.33226 8.50979 8.69231 8.87868 9.06737 9.25639 9.44337 9.62558 9.80007
9.96387 10.1143 10.2491 10.367 10.4674 10.5507 10.6181 10.6709 4.45561
4.30279 4.13622 3.9571 3.7672 3.56842 3.36249 3.15055 3.26171 3.55309
3.84819 4.14433 4.43782 4.72451 5.00058 5.26326 5.51115 5.74419 5.96322
6.16956 6.36457 6.5495 6.72545 6.89345 7.05464 7.21035 7.36213 7.51175
7.66102 7.81165 7.96511 8.1225 8.2845 8.45132 8.62278 8.79826 8.97679
9.157 9.33716 9.51517 9.68861 9.85486 10.0113 10.1555 10.2857 10.4005
10.4995 10.5828 10.6513 10.706 4.52103 4.36787 4.19982 4.01844 3.82603
3.62514 3.41796 3.20589 3.32422 3.62856 3.93904 4.2519 4.56173 4.86238
5.14845 5.41649 5.66552 5.8967 6.11241 6.31532 6.50769 6.69116 6.86673
7.03508 7.19683 7.35289 7.50457 7.65351 7.80149 7.95022 8.10109 8.25515
8.41295 8.57466 8.74005 8.90857 9.07935 9.25123 9.42272 9.59197 9.75687
9.91509 10.0643 10.2025 10.3278 10.4392 10.5362 10.6188 10.6875 10.7433
4.57682 4.42293 4.25299 4.06903 3.87404 3.67137 3.46393 3.2535 3.381
3.7015 4.0322 4.36781 4.70011 5.01965 5.31838 5.5919 5.84022 6.06674
6.27632 6.47361 6.66202 6.84348 7.01861 7.1873 7.34936 7.50513 7.65569
7.80275 7.94826 8.09408 8.24165 8.39193 8.54536 8.70197 8.86148 9.02332
9.18671 9.35064 9.51384 9.6747 9.83138 9.98184 10.124 10.2561 10.3765
10.4841 10.5786 10.6597 10.728 10.784 4.61914 4.46382 4.29134 4.10425
3.90641 3.70216 3.49542 3.28865 3.42753 3.76805 4.12546 4.49232 4.85598
5.20137 5.51596 5.79414 6.03812 6.25539 6.45482 6.64383 6.82717 7.00674
7.18217 7.35188 7.51428 7.66889 7.81674 7.96 8.10124 8.2427 8.38597
8.53191 8.68078 8.83239 8.98631 9.14191 9.29842 9.45494 9.61036 9.76332
9.91219 10.0552 10.1905 10.3165 10.4318 10.5354 10.6269 10.7059 10.7729
10.8283 4.64413 4.48634 4.31036 4.11927 3.91786 3.71173 3.50617 3.30486
3.45696 3.82156 4.21377 4.62349 5.0311 5.41201 5.7461 6.02633 6.25971
6.46095 6.64506 6.82312 7.00111 7.18034 7.35847 7.53116 7.69437 7.84651
7.98904 8.12549 8.25975 8.39483 8.5325 8.67344 8.81757 8.96435 9.11307
9.26295 9.41319 9.56292 9.71117 9.85675 9.99828 10.1342 10.2629 10.383
10.4931 10.5925 10.6805 10.757 10.8221 10.8762 4.64868 4.48707 4.30627
4.10982 3.90339 3.69401 3.48885 3.29362 3.45919 3.8508 4.28664 4.75377
5.22223 5.65158 6.00893 6.28609 6.49963 6.67635 6.83982 7.00524 7.17951
7.36256 7.54861 7.72846 7.89364 8.04097 8.17371 8.29859 8.42201 8.54811
8.67872 8.81402 8.95331 9.09551 9.2395 9.38425 9.52885 9.67245 9.81417
9.95297 10.0877 10.217 10.3394 10.4538 10.5589 10.6539 10.7383 10.8119
10.8747 10.9269 4.63135 4.46438 4.27717 4.07344 3.85949 3.64372 3.4357
3.24442 3.42006 3.83794 4.32431 4.86406 5.41297 5.90611 6.29032 6.55748
6.74119 6.88603 7.02585 7.1797 7.35496 7.54973 7.75333 7.9481 8.11718
8.25521 8.37052 8.4767 8.5843 8.6986 8.82085 8.95015 9.08476 9.2228
9.36261 9.50285 9.64247 9.78061 9.91645 10.0491 10.1776 10.3008 10.4175
10.5265 10.6268 10.7176 10.7985 10.869 10.9292 10.9793 4.59302 4.41929
4.22408 4.01077 3.78565 3.55803 3.34007 3.14572 3.32146 3.75751 4.29494
4.91717 5.56204 6.13205 6.54687 6.80078 6.95143 7.06459 7.18395 7.33165
7.51589 7.73407 7.97019 8.19276 8.36838 8.48866 8.57458 8.65293 8.73972
8.84017 8.95366 9.07731 9.20787 9.34246 9.4788 9.61521 9.75051 9.88385
10.0145 10.1417 10.2647 10.3825 10.494 10.5983 10.6943 10.7814 10.8589
10.9265 10.9842 11.0319 4.53711 4.35582 4.15153 3.9266 3.6862 3.4392
3.19972 2.98815 3.14436 3.57996 4.15935 4.86197 5.60272 6.25091 6.70165
6.95326 7.08559 7.18168 7.2927 7.44376 7.64578 7.8989 8.18439 8.45151
8.63636 8.72649 8.76957 8.81301 8.87715 8.96443 9.07063 9.19017 9.31803
9.45026 9.58402 9.71736 9.84905 9.97828 10.1045 10.227 10.3453 10.4585
10.5658 10.6662 10.7587 10.8426 10.9172 10.9823 11.0376 11.0831 4.46911
4.28052 4.06738 3.8303 3.5719 3.29833 3.02305 2.77272 2.87874 3.2854
3.89294 4.66593 5.48446 6.19493 6.68696 6.96305 7.10973 7.21565 7.33626
7.5006 7.72433 8.01357 8.35193 8.67059 8.86568 8.92064 8.92066 8.9343
8.98211 9.06166 9.1647 9.2831 9.41037 9.54176 9.67403 9.80517 9.93398
10.0598 10.1823 10.3011 10.4156 10.5254 10.6294 10.7269 10.8169 10.8985
10.9711 11.0342 11.0876 11.1312 4.39545 4.20128 3.9816 3.73493 3.46036
3.15887 2.83872 2.52848 2.54999 2.89817 3.52903 4.36977 5.24398 5.99024
6.51887 6.83916 7.02819 7.16742 7.31219 7.49476 7.73467 8.04208 8.40339
8.74491 8.94765 8.99391 8.98397 8.9932 9.04117 9.12325 9.22955 9.35094
9.4803 9.61264 9.74469 9.87456 10.0013 10.1245 10.2442 10.3601 10.4721
10.5795 10.6817 10.7776 10.8663 10.9468 11.0183 11.0803 11.1324 11.1746
4.32229 4.12566 3.90402 3.6544 3.37284 3.05498 2.70131 2.33548 2.269
2.55471 3.21403 4.1145 5.01305 5.75781 6.29653 6.65047 6.88283 7.06039
7.23264 7.43112 7.67525 7.97353 8.31149 8.62786 8.83357 8.91421 8.94253
8.98048 9.04837 9.14456 9.26108 9.38976 9.52401 9.65916 9.79228 9.92185
10.0473 10.1688 10.2865 10.4007 10.5113 10.6178 10.7196 10.8155 10.9044
10.9851 11.0568 11.1186 11.1703 11.2117 4.2543 4.05915 3.84167 3.59885
3.32614 3.01768 2.67096 2.30564 2.23052 2.51445 3.18788 4.08119 4.93164
5.61564 6.11754 6.46967 6.72244 6.92561 7.11782 7.32517 7.56316 7.83613
8.13014 8.40468 8.6104 8.73772 8.82374 8.90773 9.0078 9.12611 9.25804
9.39744 9.53889 9.67847 9.81385 9.94403 10.069 10.1895 10.3062 10.4197
10.5303 10.6376 10.7406 10.8383 10.929 11.0116 11.0847 11.1477 11.1999
11.2412 4.19402 4.00413 3.79669 3.57036 3.32307 3.05277 2.76216 2.47361
2.50715 2.88155 3.54174 4.3309 5.04283 5.60104 6.01841 6.33119 6.57637
6.78643 6.9869 7.19563 7.42275 7.66959 7.92564 8.16807 8.37288 8.53438
8.66849 8.79603 8.92955 9.07221 9.22168 9.37362 9.52376 9.66898 9.80754
9.93905 10.0642 10.1843 10.3007 10.4147 10.5268 10.6365 10.7428 10.8442
10.9387 11.0248 11.1009 11.1661 11.2198 11.2619 4.14192 3.95983 3.76619
3.5623 3.35011 3.13353 2.92234 2.73972 2.9195 3.41364 4.06077 4.71798
5.25645 5.662 5.97443 6.22921 6.4498 6.65317 6.85259 7.05761 7.27344
7.49983 7.73014 7.95255 8.15586 8.33705 8.50263 8.66253 8.82377 8.98843
9.15482 9.3195 9.47893 9.63046 9.7728 9.90611 10.0317 10.1518 10.2687
10.3842 10.4992 10.6132 10.7249 10.832 10.9323 11.0236 11.1042 11.173
11.2292 11.2729 4.09711 3.92354 3.7443 3.56318 3.38553 3.21928 3.07672
2.97512 3.25634 3.8265 4.45735 5.01262 5.41672 5.70355 5.93247 6.1378
6.33365 6.52654 6.72098 6.92034 7.1263 7.33793 7.5514 7.76098 7.96172
8.15237 8.33578 8.51648 8.69766 8.87978 9.06078 9.23734 9.40599 9.56414
9.71061 9.84587 9.97199 10.0921 10.2098 10.3276 10.4469 10.5672 10.6863
10.8014 10.9095 11.0078 11.0943 11.1677 11.2274 11.2733 4.05832 3.89234
3.72527 3.56251 3.41109 3.27964 3.17799 3.11408 3.42955 4.00503 4.59298
5.0807 5.42124 5.65824 5.85154 6.0342 6.21753 6.40412 6.59441 6.78859
6.98648 7.18707 7.38842 7.58812 7.7845 7.9776 8.16915 8.3613 8.55515
8.74985 8.94269 9.12988 9.30752 9.47253 9.62338 9.76062 9.88697 10.0068
10.1252 10.2459 10.3709 10.4992 10.6279 10.753 10.8707 10.9775 11.0711
11.1501 11.214 11.2628 4.02484 3.86456 3.70595 3.55501 3.41882 3.30449
3.21726 3.1566 3.45777 3.98948 4.51509 4.95732 5.28471 5.52594 5.7256
5.91241 6.09804 6.28546 6.47465 6.66509 6.85622 7.04749 7.23831 7.42833
7.61783 7.80798 8.00054 8.19697 8.39751 8.60058 8.80284 8.99976 9.18652
9.35901 9.51486 9.6543 9.78061 9.89968 10.0184 10.1424 10.2741 10.4121
10.5521 10.6889 10.8175 10.9338 11.0353 11.1204 11.1888 11.2409 3.99695
3.8405 3.68673 3.54149 3.41104 3.30035 3.21056 3.13583 3.40334 3.87873
4.34517 4.75497 5.0862 5.35117 5.57619 5.78221 5.9801 6.17393 6.36465
6.55232 6.73694 6.91878 7.09843 7.27701 7.45627 7.63853 7.82625 8.02121
8.22371 8.43197 8.64215 8.84879 9.04574 9.22733 9.38974 9.53242 9.65901
9.77707 9.89594 10.0233 10.1624 10.3109 10.4633 10.6125 10.7524 10.8784
10.9877 11.079 11.152 11.2074 3.9758 3.82207 3.67075 3.52711 3.39635
3.28166 3.18161 3.0883 3.32183 3.74892 4.1701 4.55635 4.89201 5.17947
5.43129 5.65995 5.8735 6.07589 6.26884 6.45329 6.63017 6.80073 6.96671
7.13046 7.29507 7.46417 7.64148 7.82991 8.03054 8.2419 8.45972 8.67741
8.88704 9.08082 9.25292 9.40146 9.53011 9.64804 9.76732 9.89808 10.0444
10.2033 10.3674 10.5283 10.6786 10.8134 10.9299 11.0267 11.104 11.1625
3.96284 3.81175 3.66212 3.51839 3.38471 3.26299 3.15075 3.04014 3.24611
3.63746 4.02706 4.39662 4.73453 5.03839 5.31206 5.56093 5.78911 5.99914
6.19277 6.37171 6.53789 6.69364 6.84175 6.98571 7.12992 7.27962 7.44044
7.61724 7.8127 8.02608 8.25266 8.4843 8.71077 8.92162 9.10849 9.26768
9.40238 9.52303 9.64419 9.77845 9.93094 10.0982 10.2716 10.4414 10.5997
10.7412 10.8631 10.9643 11.0449 11.1061 3.95912 3.8115 3.66409 3.52042
3.38357 3.25459 3.13081 3.00548 3.19075 3.55711 3.92554 4.28402 4.62366
4.93984 5.23103 5.49685 5.73705 5.95188 6.14266 6.31185 6.4626 6.59835
6.72285 6.84053 6.95708 7.07969 7.21668 7.37607 7.56318 7.77846 8.01645
8.26668 8.51578 8.75011 8.95848 9.13509 9.28217 9.41063 9.5367 9.67489
9.83157 10.0036 10.1818 10.3562 10.5185 10.6636 10.7885 10.8923 10.9753
11.0385 3.96485 3.82198 3.67804 3.53552 3.39645 3.26118 3.12732 2.98962
3.15972 3.50907 3.86384 4.21613 4.55917 4.88732 5.19516 5.47683 5.72694
5.94273 6.12522 6.27839 6.40716 6.51628 6.61017 6.69384 6.77397 6.85998
6.96399 7.09886 7.27425 7.49237 7.74621 8.02142 8.30021 8.56516 8.80225
9.00372 9.1706 9.31337 9.4486 9.59174 9.75044 9.92274 10.1005 10.2744
10.4364 10.5815 10.7069 10.8114 10.8954 10.9599 3.97939 3.84268 3.70362
3.56363 3.42365 3.28346 3.14106 2.99276 3.15176 3.48982 3.83636 4.1869
4.53688 4.88051 5.2089 5.50944 5.76917 5.98118 6.14755 6.27594 6.37446
6.44929 6.50504 6.54642 6.58046 6.61875 6.67844 6.77993 6.93991 7.16317
7.43941 7.74764 8.06366 8.36571 8.63743 8.86978 9.06277 9.2258 9.37452
9.52427 9.68372 9.85293 10.0259 10.1948 10.3527 10.4946 10.618 10.7216
10.8055 10.8707 4.0015 3.87235 3.73965 3.60364 3.4642 3.32048 3.17083
3.01305 3.16372 3.49429 3.83623 4.18866 4.55019 4.91637 5.27517 5.60384
5.8757 6.07729 6.21584 6.3078 6.36648 6.39931 6.41005 6.40187 6.38082
6.35999 6.36271 6.42046 6.56122 6.79353 7.10069 7.45067 7.8104 8.15361
8.46266 8.72842 8.95056 9.13731 9.30265 9.4609 9.62138 9.78629 9.95232
10.1137 10.2649 10.4017 10.5215 10.6229 10.7059 10.7712 4.02961 3.90953
3.78484 3.65458 3.51734 3.37151 3.21559 3.04865 3.19232 3.51719 3.85601
4.21212 4.58897 4.9864 5.39141 5.76609 6.05628 6.2369 6.33105 6.37305
6.38277 6.36752 6.32892 6.26726 6.18601 6.0982 6.03349 6.03805 6.15656
6.40265 6.74875 7.14666 7.55247 7.9362 8.28049 8.57757 8.82767 9.03811
9.22102 9.38925 9.55214 9.71364 9.87289 10.0265 10.1704 10.3012 10.4165
10.5152 10.5968 10.662 4.06196 3.95266 3.83813 3.716 3.58327 3.43701
3.27539 3.09863 3.23501 3.55363 3.8879 4.24586 4.63727 5.06994 5.53563
5.97909 6.29701 6.44418 6.47913 6.46275 6.41891 6.35334 6.26549 6.15255
6.01426 5.86176 5.72939 5.67884 5.77467 6.03633 6.42198 6.86467 7.3102
7.72664 8.09846 8.42015 8.693 8.92378 9.12285 9.30134 9.46811 9.62806
9.78225 9.92924 10.0665 10.1916 10.3027 10.3985 10.4789 10.544 4.09636
3.99983 3.89824 3.78765 3.66284 3.51851 3.35157 3.16314 3.29003 3.59922
3.92414 4.27721 4.6738 5.12982 5.6458 6.15705 6.50868 6.63204 6.62301
6.55953 6.46646 6.35314 6.22143 6.06714 5.88658 5.68804 5.50744 5.41647
5.4941 5.76389 6.17284 6.64076 7.10738 7.54064 7.92703 8.26296 8.55054
8.79588 9.00767 9.19524 9.3665 9.52661 9.67778 9.82002 9.95213 10.0726
10.18 10.2734 10.3527 10.4179 4.12986 4.04811 3.96275 3.86827 3.75636
3.61762 3.44584 3.24261 3.35572 3.64974 3.95765 4.29508 4.67955 5.12852
5.64427 6.16594 6.54499 6.70748 6.72232 6.64577 6.51353 6.35827 6.19297
6.01419 5.81592 5.60424 5.41336 5.31343 5.38215 5.64258 6.04221 6.50171
6.96159 7.39047 7.77555 8.11364 8.40663 8.65956 8.87937 9.07355 9.24879
9.40991 9.55963 9.69886 9.82735 9.94434 10.049 10.1408 10.2194 10.285
4.1584 4.09275 4.0266 3.95325 3.86071 3.73298 3.55745 3.33526 3.42839
3.69976 3.9821 4.29289 4.648 5.05987 5.5261 6.00245 6.39962 6.65862
6.76255 6.70164 6.53825 6.35121 6.16835 5.98622 5.79739 5.60671 5.4438
5.36644 5.43603 5.67082 6.03009 6.449 6.87553 7.27992 7.6487 7.97755
8.26707 8.52066 8.74342 8.94102 9.11877 9.28082 9.42988 9.5673 9.69344
9.80811 9.91094 10.0016 10.0801 10.1466 4.17675 4.12665 4.08057 4.03156
3.96417 3.85361 3.67637 3.43141 3.49817 3.74015 3.99073 4.26811 4.58468
4.94703 5.3508 5.77227 6.17254 6.50936 6.70013 6.66759 6.49701 6.3057
6.13019 5.96718 5.80982 5.66257 5.54875 5.50959 5.58614 5.79066 6.0968
6.45905 6.8368 7.20359 7.54546 7.85645 8.13533 8.3837 8.60477 8.8025
8.98081 9.14301 9.2915 9.42772 9.55233 9.66552 9.76726 9.85749 9.93625
10.0038 4.17913 4.14103 4.11135 4.08389 4.04111 3.94969 3.77284 3.5057
3.54463 3.75622 3.97521 4.21944 4.49774 4.81274 5.1604 5.52906 5.90062
6.23965 6.45696 6.47186 6.35189 6.20285 6.06472 5.9405 5.82793 5.73229
5.67086 5.67053 5.75622 5.93545 6.19277 6.49916 6.82561 7.15051 7.46057
7.74878 8.01237 8.25123 8.46693 8.66189 8.83877 9.00003 9.14757 9.2827
9.4062 9.51844 9.6196 9.70978 9.78916 9.85801 4.16078 4.12795 4.1055
4.08783 4.05683 3.97507 3.79836 3.51925 3.5406 3.73132 3.92747 4.14576
4.39255 4.66833 4.96914 5.28676 5.60664 5.89736 6.09888 6.16519 6.12825
6.05157 5.97071 5.89667 5.83351 5.78803 5.77311 5.80579 5.90076 6.0625
6.28231 6.5425 6.82349 7.10888 7.38713 7.65115 7.89723 8.12405 8.33186
8.52184 8.6956 8.85478 9.00077 9.13465 9.25714 9.36867 9.46954 9.55996
9.64016 9.71046 4.1197 4.08385 4.05654 4.03167 3.99143 3.90122 3.72204
3.4483 3.47093 3.65741 3.84465 4.04793 4.27275 4.51899 4.78275 5.05644
5.32674 5.57016 5.75363 5.85536 5.88702 5.87951 5.85761 5.8347 5.81868
5.81735 5.84064 5.89967 6.0033 6.1543 6.34783 6.57323 6.81767 7.06929
7.31877 7.55967 7.78802 8.00178 8.20032 8.38389 8.55327 8.7094 8.85324
8.98556 9.10695 9.21784 9.31853 9.4093 9.49042 9.56221 3.38132 3.23426
3.08158 2.92315 2.75884 2.58851 2.41253 2.23304 2.28674 2.47805 2.68617
2.90187 3.1172 3.3292 3.53706 3.74041 3.93882 4.1318 4.31887 4.49965
4.67403 4.84225 5.00491 5.16304 5.31798 5.47132 5.62475 5.77991 5.93823
6.10083 6.26842 6.44126 6.61922 6.80178 6.98816 7.17733 7.3681 7.55917
7.74906 7.93618 8.11875 8.29486 8.4625 8.61971 8.76477 8.89635 9.0137
9.11669 9.20578 9.28187 3.44191 3.29373 3.13973 2.97981 2.81392 2.64206
2.46474 2.2842 2.34198 2.53878 2.75042 2.96944 3.18877 3.40532 3.61798
3.82611 4.02906 4.22609 4.41651 4.5998 4.77573 4.9445 5.1068 5.2638
5.41706 5.56847 5.72 5.87361 6.03099 6.19349 6.36197 6.53681 6.71791
6.90476 7.09652 7.29211 7.49025 7.6895 7.8882 8.08451 8.27629 8.4612
8.63669 8.80024 8.94963 9.08324 9.20028 9.30081 9.38568 9.45625 3.50471
3.35568 3.20068 3.03976 2.87302 2.70074 2.52377 2.3442 2.40853 2.6118
2.82546 3.04547 3.26695 3.48692 3.7038 3.91647 4.12392 4.32507 4.51896
4.70484 4.88235 5.05162 5.21343 5.36908 5.5204 5.66956 5.81887 5.97057
6.12666 6.2887 6.45775 6.6343 6.81833 7.00932 7.20645 7.40858 7.61435
7.8222 8.03032 8.23659 8.43849 8.63313 8.81729 8.98774 9.14163 9.27696
9.39291 9.48987 9.56923 9.633 3.5697 3.42 3.26424 3.10257 2.93527
2.76285 2.58627 2.40718 2.47741 2.68734 2.90409 3.12576 3.34944 3.57266
3.79362 4.01081 4.22281 4.4282 4.6257 4.81428 4.99342 5.16321 5.32446
5.47866 5.6279 5.77462 5.92147 6.071 6.22549 6.38674 6.55601 6.73392
6.92053 7.1154 7.31768 7.52624 7.73966 7.95629 8.17416 8.3909 8.60358
8.80869 9.0022 9.17999 9.33842 9.47503 9.58902 9.68125 9.75385 9.80963
3.63683 3.48659 3.33015 3.16775 2.9998 2.82688 2.64989 2.46999 2.54486
2.76129 2.98241 3.20728 3.43414 3.66109 3.88634 4.10817 4.32484 4.5346
4.73582 4.92723 5.1081 5.27848 5.43922 5.59199 5.73913 5.88338 6.02769
6.1749 6.32757 6.48774 6.65685 6.83569 7.02444 7.22272 7.42974 7.64434
7.8651 8.09029 8.31783 8.5451 8.76876 8.98464 9.18782 9.37311 9.53592
9.67328 9.78444 9.8709 9.93573 9.98268 3.70604 3.55531 3.39817 3.23492
3.06601 2.89203 2.71373 2.53198 2.61057 2.83329 3.05954 3.28874 3.51972
3.75097 3.98084 4.20747 4.4289 4.6431 4.84813 5.04246 5.22517 5.39626
5.55664 5.70815 5.85335 5.99528 6.13713 6.28202 6.43276 6.59161 6.7602
6.9395 7.12982 7.33089 7.54196 7.76192 7.9893 8.22236 8.45888 8.69605
8.93015 9.15638 9.36887 9.56131 9.72807 9.86559 9.97327 10.0533 10.11
10.1479 3.77734 3.62613 3.4682 3.30389 3.13364 2.95805 2.77775 2.59342
2.67517 2.90398 3.13569 3.36983 3.60552 3.84149 4.07616 4.30764 4.53381
4.75239 4.9612 5.15846 5.34312 5.51509 5.67537 5.82594 5.96956 6.10949
6.24916 6.39191 6.54073 6.6981 6.86584 7.0451 7.23634 7.4394 7.65362
7.87789 8.11075 8.35039 8.5945 8.8401 9.08315 9.31827 9.53876 9.73724
9.90709 10.0442 10.1482 10.222 10.2709 10.3004 3.85075 3.69906 3.54023
3.37463 3.20271 3.02503 2.8422 2.65479 2.73935 2.97408 3.21132 3.45066
3.6913 3.93212 4.17158 4.40777 4.63845 4.86118 5.07358 5.27369 5.46034
5.63342 5.79395 5.94405 6.08662 6.22509 6.36304 6.50397 6.65103 6.80687
6.97348 7.1522 7.34364 7.54778 7.76401 7.99124 8.228 8.47237 8.72197
8.97364 9.22306 9.46446 9.6905 9.89301 10.0646 10.2009 10.3016 10.3702
10.4129 10.436 3.92633 3.77416 3.61434 3.44723 3.27333 3.09319 2.90742
2.71657 2.80368 3.04419 3.28694 3.53149 3.7771 4.02267 4.2667 4.50725
4.74201 4.96846 5.18409 5.38685 5.5755 5.74989 5.91111 6.06132 6.20353
6.34122 6.47807 6.61766 6.76325 6.9176 7.08289 7.26059 7.45149 7.65568
7.87262 8.10121 8.33991 8.58672 8.8391 9.09373 9.34612 9.59022 9.8184
10.0222 10.1939 10.329 10.4273 10.4928 10.5318 10.5511 4.00419 3.85155
3.69064 3.52185 3.3457 3.16278 2.97373 2.77915 2.86864 3.11483 3.36302
3.61273 3.86319 4.11329 4.36152 4.60594 4.84421 5.07378 5.29214 5.49722
5.68778 5.86369 6.02605 6.17702 6.31961 6.45731 6.59378 6.73263 6.87714
7.03016 7.19399 7.37026 7.55989 7.76306 7.97929 8.20746 8.44594 8.69261
8.94475 9.19889 9.4504 9.69319 9.91972 10.1217 10.2917 10.4254 10.5227
10.5874 10.6257 10.6443 4.0844 3.93134 3.76928 3.59864 3.41999 3.23402
3.04142 2.84286 2.93463 3.18648 3.44011 3.69493 3.95013 4.20453 4.45658
4.70432 4.94545 5.17747 5.39797 5.60495 5.79726 5.97482 6.1387 6.29104
6.43477 6.57326 6.71012 6.84886 6.99276 7.14469 7.30703 7.48151 7.66916
7.87025 8.08432 8.31023 8.54626 8.79016 9.03905 9.28932 9.53632 9.77409
9.99552 10.1929 10.3597 10.4919 10.5893 10.6554 10.6958 10.7166 4.16699
4.01357 3.85031 3.67767 3.49632 3.30705 3.11067 2.90793 3.00199 3.25961
3.51878 3.77882 4.03878 4.29737 4.55296 4.80356 5.04695 5.28075 5.50274
5.71114 5.90495 6.08417 6.24985 6.40406 6.54955 6.68956 6.8275 6.96675
7.11052 7.26165 7.42252 7.59492 7.77995 7.97794 8.18845 8.41033 8.64179
8.88048 9.12342 9.36695 9.60647 9.83635 10.0501 10.241 10.4034 10.5338
10.6321 10.7012 10.7456 10.7707 4.25186 4.09819 3.93368 3.7589 3.57464
3.38186 3.18153 2.9745 3.07095 3.33462 3.59968 3.8653 4.13032 4.39324
4.65231 4.9055 5.15066 5.38564 5.60852 5.8178 6.01274 6.19347 6.36105
6.51741 6.66512 6.80718 6.94677 7.08708 7.23116 7.38176 7.54122 7.71132
7.89318 8.08715 8.29282 8.50906 8.73407 8.96548 9.20031 9.43492 9.66491
9.88509 10.0897 10.2731 10.4304 10.5589 10.6583 10.7309 10.7803 10.811
4.33867 4.18487 4.01909 3.842 3.65463 3.45817 3.25379 3.04249 3.14163
3.41188 3.68352 3.95546 4.22623 4.49404 4.75686 5.01261 5.25924 5.49488
5.718 5.92756 6.12313 6.30504 6.47439 6.63296 6.78311 6.92753 7.06914
7.21089 7.35561 7.50591 7.66401 7.83164 8.00986 8.19905 8.39882 8.60808
8.82512 9.04765 9.27279 9.49707 9.71636 9.92596 10.1209 10.2963 10.4484
10.5747 10.6751 10.7511 10.8055 10.842 4.42674 4.27294 4.10582 3.92626
3.73557 3.53529 3.32688 3.11152 3.21387 3.49161 3.77099 4.05057 4.3284
4.60216 4.86945 5.12801 5.3759 5.61167 5.83433 6.04339 6.2389 6.42147
6.59223 6.75284 6.90538 7.05224 7.19601 7.33936 7.48489 7.63501 7.79177
7.95677 8.13101 8.31484 8.5079 8.70921 8.9172 9.12977 9.34425 9.55743
9.76555 9.9644 10.1497 10.3173 10.464 10.5879 10.6888 10.7676 10.8265
10.8684 4.51482 4.36111 4.19257 4.01032 3.81611 3.61194 3.39969 3.18075
3.28718 3.57378 3.86276 4.15211 4.43913 4.72065 4.99359 5.25542 5.50438
5.73956 5.96076 6.1683 6.36283 6.54531 6.71694 6.87922 7.0339 7.18302
7.32884 7.47371 7.61999 7.76986 7.9252 8.08744 8.25747 8.43557 8.62145
8.81424 9.01258 9.21462 9.41801 9.61986 9.8168 10.0051 10.181 10.341
10.4825 10.6037 10.7043 10.785 10.8475 10.8939 4.60084 4.44726 4.27713
4.09192 3.89398 3.68596 3.47028 3.24865 3.36046 3.65799 3.95938 4.26183
4.56135 4.85339 5.13375 5.39942 5.64893 5.88231 6.10055 6.30507 6.49739
6.67886 6.85071 7.01416 7.17059 7.3216 7.46907 7.61508 7.76176 7.9111
8.06481 8.22413 8.38981 8.56207 8.74063 8.92475 9.1133 9.30473 9.49704
9.68771 9.87377 10.0519 10.2189 10.3716 10.5077 10.6258 10.7254 10.8071
10.872 10.9217 4.68171 4.52817 4.35617 4.16766 3.96577 3.75405 3.53567
3.31275 3.4318 3.74321 4.06124 4.38183 4.69894 5.00561 5.29575 5.56563
5.81443 6.04378 6.2566 6.45599 6.64451 6.82394 6.9954 7.15962 7.31735
7.46967 7.6181 7.76449 7.91086 8.05911 8.21079 8.36698 8.52827 8.69477
8.86618 9.04187 9.22092 9.40207 9.58366 9.76357 9.93919 10.1076 10.2659
10.4114 10.5421 10.6566 10.7545 10.836 10.9021 10.9539 4.75315 4.5993
4.42498 4.23274 4.02668 3.81153 3.59148 3.36926 3.49805 3.82742 4.16823
4.51461 4.85705 5.18443 5.48737 5.7611 6.00631 6.22762 6.43115 6.6224
6.80526 6.9818 7.1526 7.31748 7.47619 7.62909 7.77736 7.92287 8.06774
8.21393 8.36294 8.5157 8.67259 8.83357 8.99826 9.16607 9.33623 9.50774
9.67924 9.84896 10.0146 10.1738 10.3237 10.4621 10.587 10.6975 10.7928
10.8732 10.9392 10.9919 4.80978 4.65493 4.47762 4.28105 4.07054 3.85224
3.63174 3.41272 3.55423 3.90685 4.27918 4.66279 5.04244 5.39958 5.7189
5.99436 6.23012 6.43651 6.62488 6.80411 6.9795 7.15293 7.32375 7.48994
7.6496 7.80208 7.94845 8.09101 8.23246 8.37511 8.52051 8.6694 8.82191
8.9777 9.13626 9.29694 9.45903 9.62172 9.7839 9.94409 10.1004 10.2505
10.3923 10.5235 10.6426 10.7484 10.8405 10.9187 10.9837 11.036 4.84573
4.68873 4.50745 4.30577 4.09028 3.86882 3.64881 3.43551 3.59266 3.97466
4.39024 4.82787 5.26297 5.66339 6.00296 6.2744 6.48984 6.67038 6.83552
6.99836 7.16525 7.33699 7.51036 7.68002 7.84113 7.99168 8.13318 8.26944
8.40453 8.5415 8.682 8.82647 8.97458 9.12558 9.27866 9.43302 9.58795
9.7427 9.89638 10.0477 10.1952 10.3368 10.4706 10.5947 10.7077 10.8086
10.8967 10.9721 11.035 11.086 4.85583 4.69506 4.50848 4.30054 4.07896
3.85341 3.63363 3.42748 3.60167 4.01856 4.49151 5.00633 5.52408 5.98787
6.35101 6.60625 6.78346 6.92294 7.05552 7.19841 7.35791 7.53247 7.71442
7.89246 8.05632 8.20212 8.33349 8.45794 8.58232 8.7108 8.84488 8.98434
9.12808 9.27472 9.42298 9.57182 9.72043 9.8681 10.0141 10.1573 10.2965
10.43 10.5562 10.6734 10.7803 10.876 10.9598 11.0318 11.092 11.1409