# vtk DataFile Version 3.0
vtk output
ASCII
DATASET RECTILINEAR_GRID
FIELD FieldData 2
base_index 1 3 int
0 0 0
avtOriginalBounds 1 6 double
-10 10 -10 10 -10 10
DIMENSIONS 50 50 50
X_COORDINATES 50 float
-10 -9.59184 -9.18367 -8.77551 -8.36735 -7.95918 -7.55102 -7.14286 -6.73469
-6.32653 -5.91837 -5.5102 -5.10204 -4.69388 -4.28571 -3.87755 -3.46939 -3.06122
-2.65306 -2.2449 -1.83673 -1.42857 -1.02041 -0.612245 -0.204082 0.204082 0.612245
1.02041 1.42857 1.83673 2.2449 2.65306 3.06122 3.46939 3.87755 4.28572
4.69388 5.10204 5.5102 5.91837 6.32653 6.73469 7.14286 7.55102 7.95918
8.36735 8.77551 9.18367 9.59184 10
Y_COORDINATES 50 float
-10 -9.59184 -9.18367 -8.77551 -8.36735 -7.95918 -7.55102 -7.14286 -6.73469
-6.32653 -5.91837 -5.5102 -5.10204 -4.69388 -4.28571 -3.87755 -3.46939 -3.06122
-2.65306 -2.2449 -1.83673 -1.42857 -1.02041 -0.612245 -0.204082 0.204082 0.612245
1.02041 1.42857 1.83673 2.2449 2.65306 3.06122 3.46939 3.87755 4.28572
4.69388 5.10204 5.5102 5.91837 6.32653 6.73469 7.14286 7.55102 7.95918
8.36735 8.77551 9.18367 9.59184 10
Z_COORDINATES 50 float
-10 -9.59184 -9.18367 -8.77551 -8.36735 -7.95918 -7.55102 -7.14286 -6.73469
-6.32653 -5.91837 -5.5102 -5.10204 -4.69388 -4.28571 -3.87755 -3.46939 -3.06122
-2.65306 -2.2449 -1.83673 -1.42857 -1.02041 -0.612245 -0.204082 0.204082 0.612245
1.02041 1.42857 1.83673 2.2449 2.65306 3.06122 3.46939 3.87755 4.28572
4.69388 5.10204 5.5102 5.91837 6.32653 6.73469 7.14286 7.55102 7.95918
8.36735 8.77551 9.18367 9.59184 10
CELL_DATA 117649
POINT_DATA 125000
SCALARS temp float
LOOKUP_TABLE default
5.42188 5.29301 5.15706 5.01371 4.86261 4.70368 4.53775 4.36828 4.20282
4.04914 3.90572 3.76316 3.61442 3.45737 3.29237 3.12049 2.94282 2.76041
2.57422 2.38522 2.3425 2.51933 2.69301 2.86381 3.03221 3.19889 3.36464
3.5303 3.69668 3.86448 4.03423 4.20626 4.38067 4.55735 4.736 4.91611
5.09704 5.27801 5.45806 5.63615 5.81107 5.9815 6.14609 6.30348 6.45247
6.59209 6.72171 6.84107 6.95027 7.04972 5.51646 5.3877 5.25167 5.10807
4.95667 4.7975 4.63155 4.46218 4.29622 4.14032 3.99309 3.84636 3.69371
3.53299 3.36436 3.18869 3.00701 2.8203 2.62954 2.43573 2.3911 2.57027
2.74579 2.918 3.08743 3.25489 3.42131 3.58766 3.7549 3.92387 4.09522
4.26935 4.44643 4.62639 4.80891 4.9935 5.17946 5.36594 5.5519 5.73611
5.91718 6.09354 6.26351 6.42544 6.57785 6.7196 6.84998 6.96881 7.07637
7.1733 5.61432 5.48612 5.35058 5.20754 5.05699 4.89927 4.73559 4.56895
4.40427 4.24567 4.09213 3.93831 3.77949 3.61358 3.44034 3.26028 3.07417
2.88285 2.68725 2.48837 2.44173 2.62328 2.80067 2.97426 3.14468 3.31284
3.47981 3.64672 3.81469 3.98469 4.15748 4.33357 4.51321 4.69635 4.88272
5.0718 5.26288 5.45504 5.64713 5.83778 6.02537 6.20802 6.38371 6.5504
6.70628 6.84997 6.98075 7.09853 7.20384 7.29762 5.71538 5.58811 5.45348
5.3115 5.16238 5.0067 4.84576 4.68188 4.51811 4.35661 4.19671 4.03545
3.8698 3.69804 3.51966 3.33479 3.14393 2.94774 2.74708 2.54294 2.49418
2.67818 2.85749 3.03247 3.20387 3.37269 3.54015 3.70755 3.87612 4.04701
4.22108 4.39897 4.58098 4.76715 4.95722 5.15069 5.34682 5.54466 5.74296
5.9402 6.1345 6.32368 6.50527 6.67682 6.83611 6.98152 7.11228 7.22848
7.33097 7.42104 5.81951 5.69343 5.55993 5.41917 5.2715 5.11761 4.95867
4.79632 4.63238 4.46792 4.30258 4.13478 3.96272 3.78514 3.60146 3.41158
3.21576 3.01453 2.80863 2.59906 2.54813 2.73466 2.91594 3.09238 3.26479
3.43431 3.60226 3.77009 3.9392 4.11084 4.28604 4.46551 4.64966 4.8386
5.03211 5.22971 5.43066 5.63397 5.8383 6.04199 6.24294 6.43859 6.62605
6.80237 6.96488 7.1117 7.24205 7.35622 7.45544 7.54145 5.92659 5.80184
5.66954 5.52992 5.38339 5.23066 5.07267 4.91059 4.74553 4.57809 4.40811
4.23475 4.05695 3.87385 3.68491 3.48994 3.28905 3.08264 2.87138 2.65627
2.60314 2.79229 2.97563 3.15363 3.32715 3.49744 3.66594 3.83422 4.00383
4.17613 4.35227 4.5331 4.7191 4.91046 5.10702 5.30832 5.51364 5.72193
5.93181 6.14147 6.34859 6.55029 6.74323 6.92393 7.0893 7.23718 7.36678
7.47867 7.57447 7.65637 6.0365 5.91318 5.78205 5.64336 5.49756 5.34529
5.18734 5.02458 4.85774 4.68726 4.51309 4.33481 4.1518 3.96346 3.76934
3.56924 3.36317 3.15146 2.93476 2.71404 2.65871 2.85054 3.03607 3.21575
3.39054 3.56175 3.73092 3.89975 4.06986 4.24275 4.41969 4.60161 4.78912
4.98247 5.18155 5.38595 5.59494 5.80745 6.02203 6.23676 6.44912 6.65594
6.8535 7.03786 7.20551 7.35407 7.48276 7.5924 7.68501 7.76317 6.14917
6.02735 5.89731 5.75933 5.61385 5.46146 5.30284 5.13871 4.96964 4.79599
4.61783 4.43496 4.24701 4.05356 3.85428 3.64894 3.43757 3.22045 2.99821
2.77184 2.71432 2.90892 3.09675 3.2783 3.45455 3.62688 3.79692 3.96642
4.1371 4.31056 4.48815 4.67091 4.85955 5.05437 5.25535 5.46208 5.67382
5.88949 6.10758 6.32605 6.54225 6.75278 6.95362 7.14052 7.30967 7.45852
7.58632 7.69411 7.78419 7.85946 6.26457 6.1443 6.01529 5.87781 5.7323
5.57932 5.41953 5.25354 5.08189 4.90493 4.7228 4.53543 4.34261 4.14405
3.93949 3.72877 3.51191 3.28921 3.06133 2.82929 2.76959 2.967 3.15725
3.34086 3.51882 3.69254 3.86368 4.03404 4.20541 4.37944 4.55756 4.74092
4.93027 5.12602 5.32816 5.53631 5.74973 5.96728 6.18739 6.40796 6.62621
6.83862 7.04104 7.22906 7.39875 7.54753 7.67467 7.7813 7.8699 7.94348
6.38263 6.26401 6.13598 5.99884 5.85302 5.69911 5.53775 5.36957 5.19509
5.01468 4.82853 4.63664 4.4389 4.23511 4.02508 3.80872 3.58613 3.35764
3.12398 2.88619 2.82432 3.02457 3.21737 3.40323 3.58315 3.75854 3.93105
4.10251 4.27471 4.44936 4.62793 4.81164 5.00131 5.19739 5.39991 5.60851
5.82241 6.04043 6.26094 6.48178 6.70012 6.91241 7.11453 7.30213 7.47138
7.61975 7.74655 7.8529 7.94121 8.01449 6.50323 6.38637 6.25933 6.12239
5.97606 5.82096 5.65779 5.4872 5.30975 5.12582 4.93561 4.73917 4.53641
4.32722 4.11148 3.88919 3.66054 3.42599 3.18632 2.94269 2.87859 3.08169
3.27713 3.46543 3.64756 3.82489 3.99907 4.17186 4.34507 4.5204 4.69938
4.88322 5.07281 5.26865 5.47077 5.67881 5.89197 6.10904 6.32834 6.54766
6.76418 6.97446 7.17453 7.3603 7.52818 7.67584 7.8026 7.90946 7.99863
8.0729 6.62613 6.51117 6.38513 6.24832 6.10132 5.94486 5.77973 5.60666
5.42624 5.23885 5.04468 4.84375 4.63596 4.42124 4.19953 3.97097 3.73589
3.4949 3.24894 2.99925 2.93282 3.13874 3.33689 3.52777 3.71232 3.89185
4.06793 4.2423 4.4167 4.59281 4.77215 4.95594 5.14511 5.34014 5.5411
5.74763 5.95891 6.1737 6.39031 6.60654 6.81964 7.02634 7.22294 7.40575
7.57154 7.71821 7.84511 7.95305 8.04392 8.12018 6.75082 6.63793 6.51292
6.37617 6.22839 6.07048 5.90338 5.72794 5.54478 5.35424 5.15644 4.95129
4.73863 4.51834 4.29048 4.05529 3.81333 3.56544 3.31276 3.05667 2.98771
3.19639 3.39726 3.59081 3.77793 3.95986 4.13807 4.31421 4.48996 4.66693
4.84661 5.0302 5.21862 5.41236 5.61149 5.81565 6.02404 6.23543 6.44814
6.66004 6.8685 7.07049 7.26266 7.44175 7.60494 7.75037 7.87742 7.98669
8.07971 8.15856 6.87642 6.76577 6.64182 6.50506 6.35641 6.19704 6.02812
5.85065 5.66529 5.47229 5.27158 5.06286 4.84577 4.6201 4.38595 4.14378
3.8944 3.639 3.37899 3.11598 3.04418 3.25552 3.45908 3.65533 3.8451
4.02955 4.21003 4.38809 4.56529 4.74319 4.92318 5.10644 5.29385 5.48588
5.68262 5.88372 6.08841 6.29551 6.50342 6.71011 6.91315 7.10975 7.29695
7.47189 7.63215 7.77612 7.90319 8.01375 8.10899 8.19061 7.0015 6.89321
6.77028 6.6334 6.48382 6.32307 6.15268 5.97386 5.7873 5.59308 5.39078
5.17967 4.95904 4.72846 4.48803 4.23845 3.98096 3.71721 3.44904 3.17836
3.10327 3.31714 3.5233 3.72221 3.91465 4.10165 4.28446 4.46448 4.64318
4.82201 5.00227 5.18509 5.37128 5.56129 5.75523 5.95275 6.15317 6.35537
6.5579 6.75886 6.95604 7.14694 7.32894 7.49955 7.65671 7.799 7.92583
8.03742 8.13466 8.21888 7.12388 7.01795 6.89591 6.75871 6.60808 6.44612
6.27486 6.09581 5.90968 5.71626 5.51454 5.30308 5.08046 4.84584 4.59926
4.34175 4.07519 3.80191 3.52441 3.24503 3.16603 3.38225 3.59088 3.79239
3.98744 4.17696 4.36205 4.54398 4.72412 4.9038 5.08425 5.2665 5.45132
5.63911 5.82997 6.02362 6.21942 6.41641 6.61325 6.80826 6.99945 7.18458
7.36136 7.52763 7.68158 7.82197 7.94823 8.06044 8.15924 8.24566 7.24037
7.13661 7.01512 6.87726 6.72541 6.56248 6.39121 6.21359 6.03037 5.84087
5.64315 5.43455 5.21247 4.97525 4.72277 4.45658 4.17951 3.89503 3.60658
3.3171 3.2334 3.45176 3.66274 3.86676 4.06435 4.25627 4.44349 4.62714
4.80851 4.98886 5.16933 5.3509 5.53422 5.71969 5.90738 6.09704 6.28814
6.47983 6.67095 6.86002 7.04528 7.22475 7.39641 7.55836 7.70902 7.84729
7.97261 8.08495 8.18475 8.2728 7.34667 7.24456 7.12299 6.98386 6.83045
6.66678 6.49663 6.32273 6.14593 5.96493 5.77637 5.57561 5.35801 5.12044
4.86243 4.58632 4.29658 3.99845 3.69681 3.39547 3.30612 3.52642 3.73969
3.9462 4.14627 4.34042 4.52946 4.71447 4.89668 5.07735 5.25759 5.43828
5.62003 5.80317 5.98772 6.17348 6.35999 6.54652 6.73208 6.9154 7.09492
7.2689 7.43558 7.59327 7.74057 7.87649 8.00047 8.11242 8.21262 8.30166
7.43733 7.33588 7.21316 7.07177 6.91615 6.7518 6.58401 6.41663 6.25092
6.08484 5.91299 5.7276 5.52054 5.28606 5.02291 4.73485 4.42907 4.11375
3.79594 3.48058 3.38452 3.6067 3.8224 4.03158 4.23415 4.43029 4.62067
4.80639 4.9888 5.16923 5.34881 5.52839 5.70848 5.88933 6.07091 6.253
6.43519 6.61686 6.79718 6.97504 7.1491 7.31784 7.4797 7.63318 7.77704
7.91037 8.03264 8.14369 8.24369 8.33307 7.5061 7.40369 7.27821 7.133
6.97394 6.80842 6.64386 6.48595 6.33695 6.19425 6.04976 5.89088 5.70362
5.47742 5.20952 4.90609 4.57915 4.24167 3.90389 3.5721 3.46842 3.69274
3.91148 4.1239 4.32916 4.52695 4.71787 4.90326 5.08482 5.26415 5.44247
5.6206 5.79895 5.9776 6.15643 6.33518 6.51344 6.69067 6.86615 7.03893
7.20786 7.37162 7.52883 7.67817 7.81854 7.94909 8.06931 8.179 8.27825
8.36735 7.5467 7.44105 7.31046 7.15909 6.99438 6.82602 6.6643 6.51792
6.39135 6.2822 6.17926 6.06288 5.90931 5.69924 5.42687 5.1027 4.7472
4.38105 4.01896 3.6685 3.55679 3.78423 4.00749 4.22447 4.43292 4.6318
4.82186 5.0052 5.18431 5.3613 5.53757 5.71384 5.89033 6.0669 6.24327
6.41906 6.59383 6.76708 6.93817 7.10629 7.27046 7.42954 7.58231 7.72763
7.86449 7.99213 8.11005 8.21802 8.31606 8.40436 7.55411 7.44226 7.30353
7.14267 6.96856 6.79344 6.63138 6.49574 6.39547 6.33028 6.28612 6.23372
6.1338 5.95153 5.6751 5.32264 4.92914 4.52711 4.13675 3.76642 3.64742
3.88027 4.11104 4.33514 4.54772 4.74659 4.93332 5.11183 5.28616 5.45919
5.63247 5.80645 5.98101 6.15567 6.32989 6.50312 6.67485 6.84459 7.01175
7.17566 7.33547 7.4902 7.63882 7.7803 7.91375 8.03845 8.15394 8.25995
8.35644 8.44354 7.52594 7.40463 7.25418 7.07945 6.89018 6.70096 6.53035
6.39871 6.32313 6.30913 6.34136 6.37835 6.35784 6.21957 5.94086 5.55244
5.11234 4.66929 4.24926 3.86022 3.73655 3.97891 4.22254 4.45834 4.67651
4.87306 5.05211 5.22154 5.38802 5.5553 5.72471 5.89613 6.06882 6.24181
6.41423 6.58531 6.75444 6.92112 7.08483 7.24498 7.40087 7.55167 7.69648
7.83442 7.96466 8.08656 8.19963 8.3036 8.39837 8.48402 7.46365 7.32985
7.16414 6.97053 6.75836 6.54336 6.34859 6.20405 6.14084 6.17691 6.29828
6.44799 6.53293 6.45749 6.18316 5.75845 5.27178 4.79037 4.34488 3.94191
3.81831 4.07607 4.34064 4.59558 4.82123 5.01086 5.17528 5.3301 5.48557
5.64572 5.8109 5.9799 6.15106 6.3228 6.49383 6.66317 6.83013 6.99418
7.15488 7.31175 7.46421 7.61156 7.75305 7.88788 8.01529 8.13466 8.24551
8.34753 8.44057 8.52466 7.37281 7.22458 7.04109 6.82424 6.58081 6.32483
6.08182 5.89329 5.81342 5.88505 6.09944 6.3756 6.5807 6.58266 6.32934
5.88756 5.37352 4.86977 4.41065 4.00219 3.8843 4.16293 4.4573 4.74072
4.97562 5.15126 5.29296 5.42871 5.57183 5.72507 5.88682 6.05425 6.22465
6.39576 6.56592 6.73396 6.89915 7.061 7.21915 7.37324 7.52282 7.66732
7.80608 7.93838 8.0635 8.18081 8.28981 8.39014 8.48162 8.56422 7.2623
7.09968 6.89838 6.65688 6.37675 6.06577 5.74601 5.46842 5.32232 5.40082
5.70878 6.11853 6.44181 6.52371 6.31546 5.89585 5.39183 4.8928 4.437
4.03275 3.92421 4.22337 4.54854 4.86361 5.10773 5.26586 5.38415 5.50342
5.63771 5.78717 5.94786 6.11547 6.28633 6.45768 6.62758 6.79481 6.95864
7.11871 7.27478 7.42663 7.57396 7.71631 7.85309 7.9836 8.10713 8.22303
8.33073 8.42982 8.52006 8.6014 7.14261 6.96825 6.75288 6.49113 6.17762
5.8093 5.39566 4.98673 4.71451 4.76425 5.17513 5.73017 6.15935 6.30816
6.15671 5.79095 5.32999 4.8601 4.42244 4.02961 3.92946 4.23839 4.57657
4.9053 5.15496 5.30911 5.42236 5.5397 5.67478 5.8265 5.98995 6.16016
6.33305 6.50565 6.67599 6.8429 7.0058 7.16451 7.31899 7.46921 7.615
7.75601 7.89168 8.02131 8.14415 8.25944 8.36656 8.46501 8.5545 8.63492
7.02373 6.84282 6.62131 6.35117 6.02138 5.61824 5.13448 4.60609 4.19502
4.19965 4.71319 5.39543 5.88811 6.06339 5.94672 5.63117 5.21975 4.78753
4.37433 3.99539 3.89928 4.20226 4.52652 4.83964 5.08924 5.26206 5.39735
5.53186 5.6793 5.84011 6.01042 6.18574 6.36225 6.53713 6.70859 6.87567
7.03805 7.19582 7.34922 7.49844 7.64349 7.78409 7.91969 8.04952 8.17269
8.28836 8.39575 8.4943 8.58363 8.6636 6.91324 6.73252 6.51557 6.25462
5.93801 5.54964 5.07678 4.54723 4.12387 4.13347 4.67485 5.35175 5.79249
5.91367 5.77768 5.47809 5.09812 4.69613 4.30488 3.93843 3.84233 4.12985
4.42775 4.71445 4.96066 5.15789 5.32565 5.48705 5.65383 5.82833 6.00844
6.19079 6.37218 6.55021 6.72337 6.89104 7.05325 7.21045 7.36326 7.51215
7.65732 7.79856 7.93525 8.06648 8.1912 8.30834 8.417 8.51647 8.60632
8.68639 6.81528 6.64125 6.43928 6.20512 5.93253 5.61418 5.25014 4.8785
4.63532 4.73693 5.19376 5.6792 5.92309 5.89831 5.68406 5.36083 4.98734
4.60175 4.2257 3.86878 3.771 4.04208 4.31638 4.58173 4.82382 5.03785
5.23195 5.41825 5.60472 5.79391 5.98485 6.1751 6.36208 6.54378 6.71904
6.88759 7.04985 7.20676 7.35938 7.50858 7.65478 7.79779 7.93687 8.07087
8.19844 8.31828 8.42926 8.53054 8.62164 8.70239 6.73063 6.56778 6.38755
6.19111 5.9808 5.76268 5.55459 5.40333 5.39768 5.61164 5.95489 6.18679
6.174 5.9625 5.64251 5.27448 4.89135 4.5114 4.14447 3.79457 3.69514
3.95261 4.20991 4.46084 4.69879 4.92137 5.13184 5.33601 5.53833 5.7404
5.94145 6.13945 6.33213 6.51771 6.69525 6.86476 7.02712 7.18381 7.33651
7.48658 7.63471 7.78071 7.92359 8.06181 8.19364 8.31742 8.4318 8.53579
8.62886 8.71085 6.65781 6.5076 6.35042 6.19263 6.04403 5.92039 5.84804
5.8676 6.02043 6.29032 6.53645 6.57315 6.36224 6.00626 5.60289 5.19708
4.80327 4.42553 4.06487 3.72077 3.62039 3.86729 4.11257 4.35338 4.58694
4.81235 5.03114 5.24604 5.45917 5.67101 5.88042 6.08532 6.28341 6.47283
6.65264 6.82302 6.98527 7.14157 7.29439 7.44577 7.59671 7.74695 7.89508
8.03903 8.17652 8.30547 8.42426 8.53178 8.62746 8.71121 6.59477 6.45584
6.31814 6.19148 6.08967 6.0314 6.04053 6.14166 6.34068 6.58381 6.73534
6.66243 6.36755 5.95854 5.52646 5.10936 4.71521 4.34252 3.98832 3.64993
3.54935 3.78778 4.0238 4.25642 4.48484 4.70919 4.93057 5.15046 5.36972
5.58803 5.80378 6.01453 6.21763 6.41083 6.59288 6.76394 6.92571 7.08121
7.23395 7.38688 7.54143 7.69712 7.85195 8.00305 8.14746 8.28263 8.40666
8.51835 8.61715 8.70305 6.54036 6.40977 6.28537 6.17844 6.10347 6.0771
6.11516 6.22552 6.39286 6.55825 6.62112 6.50064 6.20719 5.81921 5.40752
5.00624 4.62459 4.26206 3.91589 3.58353 3.48318 3.71422 3.94205 4.16679
4.38882 4.60906 4.8288 5.04923 5.27078 5.4927 5.71302 5.92881 6.13679
6.334 6.51854 6.69026 6.85121 7.00538 7.15768 7.31227 7.47105 7.63326
7.79597 7.95533 8.10758 8.24966 8.37943 8.49564 8.59783 8.68612 6.49504
6.36986 6.25278 6.15493 6.08958 6.06949 6.10242 6.18455 6.29223 6.37619
6.37194 6.23529 5.97403 5.63517 5.26641 4.89599 4.53515 4.18643 3.84936
3.5229 3.42258 3.64638 3.86587 4.0819 4.29574 4.50903 4.72361 4.94096
5.16169 5.38502 5.60873 5.82936 6.04275 6.24488 6.43282 6.6058 6.76603
6.91862 7.07017 7.22638 7.38978 7.5591 7.73032 7.89842 8.05877 8.20784
8.34333 8.46403 8.56958 8.66029 6.46067 6.33929 6.22568 6.12994 6.06336
6.0351 6.04739 6.09082 6.14153 6.1628 6.11521 5.97484 5.74594 5.45436
5.12955 4.79247 4.45431 4.11996 3.79142 3.46965 3.36834 3.58417 3.79414
3.9997 4.20287 4.40611 4.61209 4.82312 5.04044 5.26363 5.49034 5.71646
5.93673 6.14572 6.33908 6.51505 6.67573 6.82731 6.97828 7.13609 7.304
7.48021 7.65953 7.83575 8.00348 8.15881 8.29939 8.42406 8.53263 8.62555
6.43962 6.32218 6.21104 6.11479 6.04257 6.00077 5.98875 5.99583 6.00152
5.97956 5.90545 5.76538 5.56097 5.30579 5.01695 4.70863 4.39031 4.06791
3.74541 3.42579 3.32146 3.52773 3.72608 3.91851 4.10772 4.29717 4.49075
4.69212 4.90372 5.1258 5.35595 5.58924 5.81898 6.03798 6.24013 6.42234
6.58627 6.73885 6.89031 7.04984 7.2215 7.40318 7.58875 7.77113 7.94436
8.10434 8.24868 8.37635 8.48726 8.58199 6.43358 6.32175 6.21439 6.11833
6.04055 5.98532 5.95084 5.92748 5.89918 5.84748 5.75658 5.61772 5.43075
5.20201 4.94042 4.65437 4.35083 4.03586 3.7151 3.39361 3.28321 3.47751
3.66133 3.83707 4.00814 4.17914 4.3557 4.54356 4.7471 4.96766 5.20265
5.44588 5.68873 5.92191 6.13736 6.33045 6.50206 6.65931 6.81352 6.97518
7.14924 7.33377 7.52237 7.70767 7.88353 8.04579 8.19209 8.32142 8.43376
8.52975 6.44289 6.33914 6.23804 6.14456 6.06353 5.99745 5.94421 5.8962
5.84181 5.76851 5.66609 5.5287 5.355 5.1467 4.90654 4.63742 4.34316
4.02966 3.70456 3.37562 3.25505 3.43425 3.59996 3.75479 3.90265 4.04946
4.20318 4.37281 4.56575 4.78495 5.02727 5.28431 5.54472 5.79674 6.03033
6.23942 6.42391 6.59049 6.75057 6.91523 7.09024 7.27451 7.46234 7.64679
7.82198 7.98386 8.13007 8.25959 8.37238 8.46902 6.46651 6.37347 6.28143
6.19341 6.1121 6.03843 5.97032 5.90238 5.82709 5.73687 5.6258 5.49037
5.32882 5.13953 4.91952 4.66503 4.37519 4.05573 3.71806 3.3743 3.23843
3.39895 3.54271 3.6721 3.79117 3.90705 4.03084 4.17635 4.3559 4.57471
4.82816 5.10395 5.3867 5.66176 5.91742 6.1466 6.34837 6.52852 6.69765
6.86658 7.04173 7.22334 7.40721 7.58757 7.7592 7.9183 8.0626 8.19099
8.30331 8.40005 6.50243 6.42269 6.34253 6.26296 6.18448 6.10649 6.02692
5.9424 5.8492 5.7442 5.62561 5.49268 5.34445 5.17729 4.9821 4.74496
4.45598 4.1209 3.75936 3.39143 3.23438 3.37261 3.49097 3.59101 3.67615
3.75431 3.84028 3.95492 4.11822 4.33864 4.60833 4.90831 5.21752 5.51821
5.79768 6.04864 6.26977 6.4659 6.6463 6.8209 6.99639 7.17448 7.35283
7.52723 7.69346 7.8482 7.98928 8.11556 8.22675 8.32318 6.54812 6.48436
6.41918 6.35148 6.27936 6.20035 6.11198 6.01261 5.90208 5.78185 5.65462
5.52344 5.39 5.25104 5.09188 4.88234 4.59292 4.22913 3.82904 3.42652
3.24265 3.35586 3.44679 3.51551 3.56391 3.59977 3.64157 3.71936 3.86422
4.08901 4.37992 4.70804 5.04522 5.37107 5.67288 5.94411 6.18368 6.3957
6.58798 6.76924 6.94605 7.12122 7.29415 7.4623 7.62258 7.77232 7.90958
8.03326 8.14295 8.23884 6.60069 6.55589 6.50955 6.45823 6.39706 6.3208
6.22566 6.11119 5.98101 5.84175 5.70139 5.56769 5.44673 5.33902 5.22809
5.0627 4.77548 4.36969 3.9186 3.47474 3.26101 3.34838 3.41225 3.45116
3.46496 3.4602 3.45803 3.49809 3.62453 3.85506 4.16785 4.52227 4.88337
5.22924 5.54818 5.83501 6.08935 6.3148 6.51784 6.70587 6.88494 7.05848
7.22719 7.38993 7.54474 7.68967 7.82314 7.94415 8.05228 8.1476 6.65658
6.63413 6.6115 6.58276 6.53911 6.47069 6.37045 6.23842 6.08273 5.9167
5.75453 5.60879 5.48964 5.40207 5.33214 5.21338 4.93601 4.49707 4.00562
3.52677 3.28517 3.34828 3.38825 3.40325 3.3914 3.35765 3.32407 3.33648
3.44843 3.68107 4.00616 4.37476 4.74789 5.10336 5.43073 5.72609 5.98956
6.22429 6.43555 6.62937 6.81105 6.9841 7.15 7.30864 7.45901 7.59984
7.72996 7.84859 7.95533 8.05022 6.71102 6.7142 6.72092 6.72286 6.70606
6.65295 6.54963 6.39515 6.20418 5.99975 5.80367 5.63223 5.49639 5.4007
5.3307 5.22091 4.96354 4.54822 4.06568 3.57314 3.30908 3.35098 3.37275
3.37355 3.3507 3.30819 3.26728 3.27301 3.37816 3.60359 3.92138 4.28316
4.65049 5.00173 5.32695 5.62261 5.88875 6.12783 6.34388 6.54164 6.72546
6.89855 7.06271 7.21846 7.36549 7.50309 7.63053 7.74722 7.85288 7.94754
6.75741 6.78824 6.82921 6.87056 6.89235 6.86511 6.76178 6.57787 6.33854
6.08198 5.83953 5.62935 5.45933 5.32841 5.21909 5.08248 4.8533 4.51509
4.09002 3.60318 3.32164 3.34726 3.35935 3.35786 3.34002 3.30964 3.28566
3.30566 3.41198 3.62163 3.91351 4.24843 4.593 4.92691 5.24005 5.52831
5.79099 6.02954 6.24675 6.44609 6.63091 6.80392 6.96685 7.12055 7.26512
7.40031 7.5257 7.64094 7.74587 7.84053 6.78721 6.84447 6.92073 7.00665
7.07706 7.08696 6.98781 6.7675 6.46754 6.14838 5.85218 5.59686 5.38496
5.20958 5.05354 4.88757 4.68109 4.41388 4.05226 3.58487 3.30069 3.32327
3.33856 3.34718 3.34718 3.34262 3.349 3.39384 3.50619 3.69817 3.9568
4.25506 4.56713 4.87526 5.16932 5.44438 5.69871 5.93262 6.1477 6.34622
6.53059 6.70289 6.86462 7.01666 7.15936 7.29272 7.4166 7.53082 7.63532
7.7302 6.79109 6.86833 6.97295 7.0976 7.21442 7.26364 7.17118 6.91401
6.55344 6.17479 5.82942 5.53304 5.28285 5.06816 4.87371 4.68164 4.47488
4.23099 3.90519 3.47964 3.22696 3.26907 3.30291 3.33221 3.35761 3.38377
3.4227 3.49297 3.61295 3.79063 4.01909 4.28148 4.55965 4.83933 5.11116
5.36977 5.61258 5.83888 6.04922 6.24484 6.4273 6.59806 6.75828 6.90873
7.04984 7.18175 7.30447 7.41798 7.52229 7.61756 6.76127 6.84662 6.96302
7.10446 7.24248 7.31031 7.21967 6.94075 6.54599 6.13386 5.75942 5.43642
5.1593 4.91609 4.69308 4.47648 4.25192 3.9989 3.68862 3.31476 3.11335
3.18934 3.25171 3.30763 3.36083 3.41668 3.48442 3.57629 3.70367 3.87177
4.0772 4.31003 4.55824 4.81116 5.06085 5.30211 5.53192 5.74888 5.95272
6.14388 6.3232 6.49158 6.64983 6.79855 6.93812 7.06875 7.19053 7.30351
7.4078 7.50353 6.69451 6.77347 6.87999 7.00684 7.12573 7.1745 7.07462
6.80081 6.41719 6.01236 5.63796 5.30813 5.01859 4.75882 4.51704 4.28146
4.03966 3.77703 3.47981 3.14818 2.9908 3.09866 3.19011 3.27287 3.35228
3.43398 3.52517 3.63412 3.76803 3.9304 4.11972 4.33028 4.55435 4.78436
5.01402 5.23872 5.45542 5.66236 5.85874 6.04442 6.21969 6.385 6.54083
6.68758 6.82556 6.95494 7.07586 7.18842 7.29273 7.38898 5.49465 5.36435
5.22643 5.0803 4.92523 4.76038 4.58558 4.40405 4.2278 4.07363 3.93912
3.80528 3.66132 3.50589 3.34056 3.16713 2.9871 2.8017 2.61207 2.41927
2.37456 2.552 2.72572 2.89612 3.06382 3.22973 3.39487 3.56035 3.72719
3.89625 4.06818 4.24334 4.42178 4.60332 4.78752 4.97376 5.16128 5.34915
5.53634 5.72164 5.90372 6.08109 6.25214 6.4153 6.5691 6.71238 6.84439
6.96487 7.07401 7.17235 5.5931 5.46299 5.32504 5.17877 5.02357 4.85885
4.68482 4.50495 4.32995 4.17346 4.03333 3.89389 3.74539 3.58605 3.41698
3.2397 3.05553 2.86563 2.67112 2.47311 2.42622 2.60589 2.78122 2.95263
3.1209 3.28707 3.45236 3.61807 3.78541 3.95543 4.1289 4.30628 4.48771
4.67301 4.86175 5.05331 5.24684 5.44137 5.63574 5.82858 6.01829 6.20304
6.38084 6.54965 6.70765 6.85339 6.98607 7.10554 7.21224 7.3071 5.69516
5.56573 5.42843 5.28296 5.12907 4.96677 4.79701 4.62329 4.45298 4.2935
4.14338 3.99359 3.83722 3.67198 3.49803 3.31621 3.12747 2.93275 2.73308
2.52959 2.48039 2.66234 2.83928 3.01169 3.18044 3.34675 3.51203 3.67779
3.84545 4.01623 4.19106 4.37051 4.55479 4.74378 4.93707 5.13402 5.33377
5.53528 5.73728 5.93822 6.13623 6.32908 6.51427 6.6892 6.85155 6.99955
7.13234 7.24997 7.3533 7.44369 5.80077 5.67242 5.53623 5.39212 5.24022
5.081 4.91581 4.74749 4.58033 4.41768 4.25868 4.09888 3.93411 3.76228
3.58286 3.39609 3.20246 3.00268 2.79764 2.58843 2.53682 2.72115 2.89975
3.07316 3.24237 3.40877 3.57396 3.73966 3.90749 4.07885 4.25483 4.43613
4.62306 4.81557 5.01327 5.21555 5.42155 5.63017 5.84005 6.04947 6.25628
6.45779 6.65088 6.83229 6.99904 7.14899 7.28125 7.39617 7.49516 7.58017
5.90984 5.78286 5.648 5.5054 5.35541 5.19875 5.03673 4.87137 4.70503
4.53924 4.37354 4.20578 4.03359 3.85539 3.67043 3.47852 3.27984 3.07483
2.86424 2.64916 2.59508 2.7819 2.96225 3.13673 3.30645 3.47297 3.63807
3.80366 3.97156 4.14335 4.32028 4.50318 4.69248 4.8882 5.09004 5.29739
5.50942 5.72499 5.94269 6.16064 6.37639 6.58678 6.78801 6.97602 7.14707
7.29858 7.42964 7.54107 7.63492 7.71389 6.02232 5.89685 5.76338 5.62214
5.47361 5.31855 5.15809 4.99362 4.82652 4.6576 4.48664 4.31259 4.1341
3.95005 3.75968 3.56261 3.35876 3.1484 2.93217 2.71111 2.65456 2.84397
3.0262 3.20188 3.37226 3.53902 3.70412 3.86965 4.03758 4.20968 4.38735
4.57157 4.76288 4.96141 5.16692 5.37887 5.59642 5.81845 6.04346 6.26947
6.49375 6.71268 6.92178 7.11609 7.29108 7.44368 7.57302 7.68045 7.7688
7.84153 6.13818 6.01431 5.88215 5.742 5.59436 5.43997 5.27977 5.11479
4.94596 4.77381 4.59831 4.41893 4.23489 4.04537 3.8497 3.64742 3.43832
3.22251 3.00055 2.77348 2.71448 2.9066 3.09086 3.26796 3.43921 3.60644
3.77174 3.93734 4.10535 4.27769 4.45591 4.64113 4.83403 5.03485 5.24342
5.45924 5.68149 5.90905 6.14036 6.37333 6.60501 6.83137 7.04729 7.24703
7.42525 7.57845 7.70584 7.8093 7.89244 7.95944 6.25746 6.13526 6.00432
5.86494 5.71766 5.56315 5.40227 5.23584 5.06461 4.88904 4.70922 4.52492
4.33564 4.14081 3.93982 3.73221 3.51767 3.29628 3.06852 2.83544 2.77403
2.96896 3.15544 3.33421 3.50665 3.67468 3.84048 4.00637 4.17459 4.34716
4.52577 4.71169 4.90571 5.10819 5.31905 5.53779 5.76362 5.99537 6.23143
6.4696 6.70675 6.93855 7.1594 7.36296 7.54334 7.69668 7.8223 7.92253
8.00158 8.06415 6.38029 6.25983 6.13 5.99113 5.84373 5.6885 5.52623
5.35768 5.18355 5.00429 4.82011 4.63091 4.43641 4.23616 4.02966 3.81644
3.59622 3.36902 3.13535 2.89628 2.83253 3.03035 3.21925 3.39999 3.574
3.74323 3.9099 4.0764 4.24502 4.41788 4.59677 4.78309 4.97776 5.18122
5.39345 5.614 5.84201 6.07628 6.31512 6.55619 6.79623 7.03074 7.25389
7.45909 7.64021 7.79332 7.91778 8.01616 8.09295 8.15309 6.50681 6.38819
6.25941 6.12081 5.97293 5.81648 5.65227 5.4811 5.30365 5.12042 4.93168
4.73745 4.53753 4.33159 4.11922 3.9 3.67372 3.44044 3.2007 2.95562
2.88958 3.09033 3.28184 3.46489 3.64088 3.81175 3.97974 4.14721 4.3165
4.48976 4.66888 4.85534 5.05017 5.25389 5.46653 5.68763 5.91629 6.15121
6.3906 6.632 6.87206 7.10623 7.32875 7.53316 7.71353 7.86608 7.99022
8.08844 8.16514 8.22515 6.63715 6.52052 6.39278 6.25426 6.10557 5.9475
5.78094 5.60674 5.42566 5.23821 5.04472 4.84524 4.63965 4.42768 4.20899
3.98331 3.7505 3.51075 3.26471 3.01354 2.9452 3.14889 3.3432 3.52885
3.70723 3.8802 4.04996 4.21881 4.38907 4.56291 4.74224 4.92863 5.12316
5.32643 5.53848 5.75884 5.98656 6.22024 6.45797 6.6972 6.93454 7.16554
7.38475 7.58619 7.76448 7.9162 8.04077 8.14038 8.21897 8.28099 6.77136
6.65692 6.53021 6.39161 6.24183 6.08181 5.91257 5.73509 5.55018 5.35842
5.16008 4.95525 4.74377 4.52544 4.30001 4.06734 3.82747 3.58078 3.32808
3.07064 2.99991 3.20652 3.40373 3.59224 3.77336 3.94885 4.1208 4.29143
4.46299 4.6376 4.81719 5.00334 5.19718 5.39932 5.60982 5.82821 6.05348
6.28415 6.51825 6.75317 6.98555 7.21118 7.42508 7.62198 7.79723 7.94787
8.07332 8.17535 8.25724 8.32284 6.90927 6.79726 6.67161 6.53278 6.38164
6.21938 6.04724 5.86638 5.67769 5.48173 5.27873 5.06865 4.85129 4.6264
4.39384 4.15365 3.90612 3.65191 3.39205 3.12798 3.05467 3.26412 3.46429
3.65582 3.83994 4.01829 4.19279 4.36555 4.53871 4.71431 4.89423 5.08002
5.27281 5.47323 5.68133 5.89663 6.11812 6.34431 6.57318 6.80217 7.02804
7.24691 7.45434 7.64582 7.81746 7.96679 8.09323 8.19807 8.28392 8.35395
7.05034 6.94104 6.81646 6.67721 6.52445 6.35971 6.18459 6.00047 5.80836
5.60874 5.40168 5.18688 4.96395 4.73255 4.49259 4.24435 3.98847 3.72598
3.45827 3.18699 3.11074 3.32293 3.52601 3.72064 3.90791 4.08933 4.26665
4.44182 4.61682 4.7936 4.97392 5.15928 5.35076 5.54896 5.75395 5.96525
6.1819 6.40246 6.62497 6.84698 7.06546 7.27688 7.47737 7.66313 7.83094
7.97874 8.10596 8.21349 8.30331 8.37794 7.19346 7.0871 6.96357 6.82365
6.66896 6.50155 6.32353 6.13662 5.94193 5.73981 5.52995 5.3116 5.08395
4.84641 4.59893 4.34206 4.07694 3.80517 3.52862 3.24927 3.16956 3.38429
3.59019 3.78788 3.97836 4.16294 4.34322 4.52096 4.69797 4.87604 5.05683
5.24171 5.43169 5.62732 5.82868 6.03533 6.2464 6.46057 6.67602 6.8905
7.10123 7.30506 7.49862 7.67871 7.84265 7.9887 8.11632 8.22608 8.31942
8.3983 7.33658 7.23334 7.11069 6.96974 6.81273 6.64251 6.46191 6.27315
6.07745 5.87489 5.66451 5.44475 5.214 4.97118 4.71617 4.44994 4.17438
3.89189 3.60509 3.31643 3.23252 3.44956 3.65811 3.85877 4.0524 4.24015
4.42339 4.60371 4.78276 4.96217 5.14343 5.3278 5.51617 5.70903 5.90647
6.10812 6.31321 6.52061 6.72872 6.9355 7.1385 7.3349 7.52179 7.69641
7.8565 8.00059 8.12813 8.23944 8.33558 8.41803 7.47636 7.37624 7.25411
7.11157 6.95175 6.77863 6.59609 6.40706 6.21294 6.01332 5.80621 5.58863
5.35756 5.11097 4.84854 4.57187 4.284 3.98869 3.68963 3.38997 3.30088
3.51994 3.73096 3.93447 4.13115 4.32195 4.50803 4.69079 4.87174 5.05237
5.23404 5.41785 5.60458 5.79465 5.98812 6.18469 6.38377 6.58437 6.78518
6.98442 7.17993 7.36923 7.54976 7.71912 7.87538 8.01724 8.14415 8.25628
8.35436 8.4395 7.60778 7.51044 7.38816 7.24319 7.07991 6.90385 6.72037
6.53347 6.34484 6.15341 5.95558 5.74599 5.51917 5.27127 5.00154 4.7126
4.40951 4.09818 3.78401 3.47111 3.37562 3.5964 3.80976 4.01606 4.21571
4.40936 4.59798 4.78283 4.96533 5.1469 5.32878 5.51195 5.69707 5.88445
6.07413 6.26586 6.45915 6.65325 6.84707 7.03911 7.2275 7.41006 7.58453
7.7488 7.90118 8.0405 8.16623 8.27839 8.3775 8.4644 7.72387 7.62841
7.50487 7.35629 7.18865 7.00955 6.82645 6.64493 6.46732 6.29184 6.11248
5.92011 5.70488 5.45958 5.18251 4.87812 4.55502 4.22284 3.88958 3.56058
3.45729 3.6796 3.89538 4.10461 4.30722 4.50346 4.6941 4.88039 5.06379
5.24577 5.42752 5.60992 5.79348 5.97839 6.16462 6.35192 6.53993 6.72803
6.91536 7.10068 7.28237 7.45854 7.6272 7.78648 7.93487 8.07132 8.1953
8.30675 8.40602 8.49372 7.81589 7.72067 7.59414 7.44026 7.26695 7.08443
6.90297 6.73064 6.5712 6.42241 6.27518 6.11442 5.92263 5.68615 5.40118
5.07563 4.72475 4.36449 4.00675 3.65828 3.54581 3.76979 3.98858 4.20135
4.40712 4.60558 4.79736 4.98396 5.16718 5.34871 5.52979 5.71118 5.89322
6.07594 6.25916 6.44261 6.62595 6.80869 6.99013 7.16926 7.34471 7.51483
7.67789 7.83224 7.97652 8.10978 8.2315 8.34157 8.44019 8.52782 7.87431
7.77674 7.64473 7.48322 7.30219 7.11492 6.93542 6.77559 6.64224 6.53388
6.43804 6.33088 6.18165 5.96396 5.66947 5.31275 4.92172 4.52307 4.13415
3.76272 3.64018 3.86679 4.09021 4.30797 4.51747 4.71749 4.90886 5.09387
5.27518 5.45497 5.6346 5.81465 5.99521 6.17602 6.35672 6.53692 6.71625
6.8943 7.07049 7.24398 7.41364 7.57807 7.73574 7.88523 8.02532 8.15515
8.27421 8.38233 8.47964 8.56645 7.89073 7.78724 7.64649 7.47413 7.28199
7.08658 6.90657 6.75976 6.6589 6.60605 6.58655 6.5649 6.48834 6.30566
5.99817 5.59373 5.14439 4.69432 4.2672 3.87027 3.73806 3.96982 4.20135
4.42713 4.64145 4.84172 5.02976 5.20998 5.38678 5.56309 5.7403 5.91865
6.09775 6.27695 6.45559 6.6331 6.80905 6.98304 7.15458 7.32299 7.48733