# vtk DataFile Version 3.0
vtk output
ASCII
DATASET RECTILINEAR_GRID
FIELD FieldData 2
base_index 1 3 int
0 0 0
avtOriginalBounds 1 6 double
-10 10 -10 10 -10 10
DIMENSIONS 50 50 50
X_COORDINATES 50 float
-10 -9.59184 -9.18367 -8.77551 -8.36735 -7.95918 -7.55102 -7.14286 -6.73469
-6.32653 -5.91837 -5.5102 -5.10204 -4.69388 -4.28571 -3.87755 -3.46939 -3.06122
-2.65306 -2.2449 -1.83673 -1.42857 -1.02041 -0.612245 -0.204082 0.204082 0.612245
1.02041 1.42857 1.83673 2.2449 2.65306 3.06122 3.46939 3.87755 4.28572
4.69388 5.10204 5.5102 5.91837 6.32653 6.73469 7.14286 7.55102 7.95918
8.36735 8.77551 9.18367 9.59184 10
Y_COORDINATES 50 float
-10 -9.59184 -9.18367 -8.77551 -8.36735 -7.95918 -7.55102 -7.14286 -6.73469
-6.32653 -5.91837 -5.5102 -5.10204 -4.69388 -4.28571 -3.87755 -3.46939 -3.06122
-2.65306 -2.2449 -1.83673 -1.42857 -1.02041 -0.612245 -0.204082 0.204082 0.612245
1.02041 1.42857 1.83673 2.2449 2.65306 3.06122 3.46939 3.87755 4.28572
4.69388 5.10204 5.5102 5.91837 6.32653 6.73469 7.14286 7.55102 7.95918
8.36735 8.77551 9.18367 9.59184 10
Z_COORDINATES 50 float
-10 -9.59184 -9.18367 -8.77551 -8.36735 -7.95918 -7.55102 -7.14286 -6.73469
-6.32653 -5.91837 -5.5102 -5.10204 -4.69388 -4.28571 -3.87755 -3.46939 -3.06122
-2.65306 -2.2449 -1.83673 -1.42857 -1.02041 -0.612245 -0.204082 0.204082 0.612245
1.02041 1.42857 1.83673 2.2449 2.65306 3.06122 3.46939 3.87755 4.28572
4.69388 5.10204 5.5102 5.91837 6.32653 6.73469 7.14286 7.55102 7.95918
8.36735 8.77551 9.18367 9.59184 10
CELL_DATA 117649
POINT_DATA 125000
SCALARS temp float
LOOKUP_TABLE default
2.50241 2.35054 2.19413 2.22445 2.40948 2.59272 2.77356 2.9532 3.13669
3.33146 3.53928 3.75413 3.96948 4.18185 4.38983 4.59277 4.79021 4.98175
5.16703 5.34587 5.51829 5.68464 5.84557 6.0021 6.15548 6.30716 6.45867
6.61146 6.76681 6.92572 7.08885 7.25646 7.42848 7.60448 7.78374 7.96534
8.14816 8.33088 8.51209 8.69018 8.86343 9.03002 9.18809 9.33587 9.47184
9.59486 9.70431 9.80007 9.88255 9.95255 2.54606 2.39259 2.23438 2.26632
2.45609 2.64443 2.83089 3.01668 3.2064 3.40648 3.61845 3.83713 4.05657
4.27333 4.48581 4.69315 4.89469 5.08983 5.27806 5.45906 5.63279 5.79957
5.96016 6.11567 6.26758 6.41758 6.56744 6.71887 6.87338 7.03216 7.19601
7.3653 7.53999 7.71966 7.90358 8.09073 8.27991 8.46968 8.65842 8.84431
9.02529 9.19916 9.36363 9.5165 9.6559 9.78045 9.88949 9.98306 10.0618
10.127 2.59122 2.4363 2.27646 2.31045 2.5058 2.70053 2.89448 3.08887
3.28705 3.49316 3.7082 3.92887 4.15077 4.37081 4.58712 4.79852 5.00401
5.20271 5.3939 5.57706 5.75205 5.91919 6.07928 6.23359 6.38379 6.53183
6.67973 6.82948 6.98282 7.14115 7.30541 7.4761 7.65323 7.83641 8.02488
8.2176 8.41326 8.61031 8.80694 9.00107 9.19031 9.372 9.54333 9.70158
9.84441 9.97021 10.0783 10.1689 10.2431 10.3025 2.63787 2.48159 2.32024
2.35657 2.55802 2.75975 2.96182 3.16521 3.37201 3.58443 3.80297 4.02577
4.24996 4.47297 4.69288 4.90818 5.11756 5.31983 5.514 5.69934 5.87561
6.04308 6.2026 6.35559 6.50394 6.64984 6.79557 6.94339 7.09528 7.25283
7.41718 7.58892 7.76816 7.95454 8.14732 8.34542 8.54745 8.75177 8.9564
9.15898 9.35676 9.54659 9.72506 9.88881 10.035 10.1617 10.2682 10.3551
10.4239 10.4768 2.68593 2.52836 2.36553 2.40434 2.61209 2.82088 3.03083
3.24259 3.45729 3.67601 3.89891 4.12487 4.35201 4.57832 4.80194 5.02119
5.23449 5.44036 5.63754 5.82513 6.00271 6.17052 6.32948 6.48116 6.62763
6.77132 6.91479 7.06052 7.21074 7.36723 7.53131 7.70371 7.88462 8.07376
8.2704 8.47345 8.68148 8.89273 9.10508 9.31594 9.52215 9.72007 9.90562
10.0748 10.224 10.3512 10.4555 10.538 10.6009 10.6468 2.73535 2.57651
2.41217 2.45348 2.66753 2.88319 3.10051 3.31984 3.54174 3.76666 3.99453
4.22459 4.45549 4.68561 4.91322 5.13653 5.35379 5.56328 5.7635 5.95335
6.1323 6.30054 6.45905 6.60952 6.75422 6.89579 7.03703 7.18063 7.32904
7.48424 7.64771 7.82031 8.00238 8.19368 8.39352 8.60082 8.81412 9.03158
9.25092 9.46932 9.68331 9.8887 10.0808 10.2548 10.4067 10.5338 10.6356
10.7135 10.7701 10.809 2.78608 2.62595 2.46003 2.50381 2.72411 2.94638
3.1706 3.3969 3.62548 3.85647 4.08967 4.32442 4.55966 4.794 5.02579
5.25324 5.47443 5.68749 5.89071 6.08282 6.26319 6.43199 6.59023 6.73973
6.88291 7.02259 7.16178 7.30334 7.44991 7.60364 7.76616 7.93851 8.12111
8.31383 8.51602 8.72661 8.94409 9.16656 9.39161 9.61624 9.83664 10.0482
10.2456 10.4235 10.5773 10.7039 10.8031 10.8764 10.9273 10.9598 2.83808
2.67665 2.50908 2.55527 2.78173 3.01041 3.2412 3.47406 3.70899 3.94594
4.18458 4.42433 4.66422 4.90298 5.13904 5.37055 5.59554 5.81199 6.01807
6.21238 6.39421 6.56371 6.72194 6.8708 7.01284 7.15102 7.28847 7.42821
7.573 7.72516 7.88646 8.05807 8.24053 8.43381 8.63731 8.84995 9.07019
9.29606 9.52503 9.75391 9.97869 10.1944 10.3953 10.5756 10.7302 10.856
10.9526 11.0221 11.0683 11.0957 2.89134 2.72859 2.55927 2.60783 2.84042
3.07538 3.31252 3.55169 3.79277 4.03557 4.2797 4.52456 4.76922 5.01243
5.25266 5.48804 5.71655 5.93609 6.14477 6.34113 6.52441 6.69477 6.85329
7.00193 7.14331 7.28047 7.41661 7.55485 7.69804 7.8486 8.00844 8.17884
8.36046 8.55336 8.75697 8.97023 9.19154 9.41884 9.64951 9.88021 10.1067
10.324 10.526 10.7067 10.8609 10.9855 11.0801 11.147 11.1902 11.2143
2.94583 2.78175 2.61062 2.66153 2.90024 3.14141 3.38478 3.63013 3.87726
4.12587 4.37551 4.62553 4.87496 5.12257 5.36677 5.60572 5.83735 6.05959
6.27051 6.46867 6.65333 6.82466 6.98378 7.13265 7.2739 7.4106 7.54594
7.68307 7.82489 7.9739 8.13208 8.30084 8.48092 8.67245 8.8749 9.0872
9.30772 9.5343 9.76421 9.99403 10.2195 10.4354 10.6359 10.8149 10.9675
11.0906 11.1839 11.2495 11.2916 11.3146 3.00149 2.83609 2.6631 2.71635
2.96121 3.20857 3.45814 3.70966 3.96283 4.2173 4.47254 4.7278 4.98206
5.23399 5.48197 5.72415 5.95848 6.18293 6.39565 6.59529 6.78119 6.95355
7.11351 7.26301 7.40465 7.54143 7.67649 7.81295 7.95369 8.10123 8.25762
8.42432 8.60218 8.79135 8.99136 9.2011 9.41893 9.6426 9.86931 10.0956
10.3172 10.5291 10.7256 10.9011 11.0509 11.1723 11.2648 11.3306 11.3732
11.397 3.05821 2.89151 2.71662 2.77222 3.02327 3.27687 3.53268 3.79042
4.04977 4.3103 4.57138 4.83213 5.09139 5.3477 5.59938 5.84452 6.08114
6.3073 6.52135 6.72207 6.90895 7.08228 7.24322 7.39366 7.53611 7.67344
7.80869 7.94487 8.08481 8.231 8.38549 8.54979 8.72476 8.91064 9.10695
9.31262 9.52594 9.74467 9.96597 10.1864 10.4018 10.6074 10.7979 10.9684
11.1146 11.2339 11.3262 11.393 11.4376 11.4638 3.11576 2.9478 2.77099
2.82894 3.08624 3.34611 3.60826 3.87241 4.13824 4.40524 4.67265 4.93941
5.20413 5.46516 5.72064 5.96862 6.20719 6.43461 6.64944 6.85075 7.03825
7.21236 7.37427 7.52579 7.66931 7.80753 7.94332 8.07955 8.21891 8.36384
8.51633 8.6779 8.84942 9.03114 9.22264 9.42283 9.63006 9.8421 10.0562
10.2689 10.4763 10.674 10.8573 11.0217 11.1636 11.2808 11.3728 11.4412
11.4885 11.518 3.17373 3.00457 2.82583 2.88613 3.14968 3.41587 3.6845
3.95537 4.22818 4.50237 4.777 5.05072 5.3218 5.58824 5.84794 6.09885
6.33915 6.56735 6.78238 6.98368 7.17128 7.3458 7.50845 7.66102 7.80568
7.94494 8.08146 8.21789 8.3568 8.50049 8.65088 8.80942 8.97699 9.15383
9.33954 9.53312 9.73296 9.93693 10.1424 10.3461 10.5444 10.7333 10.9086
11.0664 11.2035 11.3182 11.41 11.48 11.5301 11.5632 3.23146 3.06117
2.88049 2.94307 3.21281 3.48534 3.76063 4.03867 4.31924 4.60174 4.885
5.16725 5.4462 5.71931 5.98404 6.2382 6.48005 6.7085 6.92298 7.12349
7.31048 7.48483 7.64784 7.80119 7.94686 8.08711 8.22433 8.36097 8.49939
8.64175 8.78987 8.9451 9.10829 9.27966 9.45887 9.64496 9.83647 10.0314
10.2273 10.4212 10.6098 10.7894 10.9564 11.1073 11.2396 11.3515 11.4427
11.5139 11.5666 11.6031 3.28795 3.11656 2.93394 2.99867 3.27438 3.55317
3.83531 4.12111 4.41058 4.70309 4.99716 5.29036 5.57955 5.86128 6.13235
6.39024 6.63343 6.86137 7.07427 7.27291 7.45832 7.63174 7.79454 7.94826
8.09463 8.23559 8.37326 8.50985 8.64754 8.78833 8.93391 9.08555 9.24402
9.40951 9.58172 9.75978 9.94239 10.1278 10.3137 10.4974 10.676 10.8463
11.0049 11.1489 11.2761 11.385 11.4751 11.5469 11.6016 11.6409 3.34171
3.16926 2.98466 3.05126 3.33252 3.61731 3.90642 4.20074 4.50065 4.80562
5.1137 5.42151 5.72452 6.01781 6.29703 6.55924 6.80324 7.02942 7.23919
7.43444 7.61703 7.78859 7.95053 8.10413 8.25076 8.39197 8.52959 8.66559
8.80202 8.94077 9.08342 9.23114 9.3846 9.54397 9.70894 9.87875 10.0522
10.2279 10.4036 10.5772 10.7459 10.9069 11.0573 11.1944 11.3164 11.4218
11.5103 11.582 11.6379 11.6792 3.39077 3.2172 3.03055 3.09856 3.38457
3.6748 3.97086 4.27452 4.5869 4.90769 5.23443 5.56224 5.88436 6.19342
6.48324 6.7502 6.9938 7.21605 7.42031 7.61009 7.78832 7.95705 8.11755
8.27063 8.41705 8.55788 8.69462 8.82913 8.96342 9.09936 9.2385 9.38189
9.53012 9.68326 9.84098 10.0026 10.1671 10.3331 10.499 10.6626 10.8216
10.9736 11.1158 11.2461 11.3627 11.4643 11.5505 11.6213 11.6775 11.72
3.43261 3.25775 3.06892 3.13756 3.42704 3.72166 4.02427 4.338 4.66526
5.00635 5.35823 5.71386 6.06286 6.39375 6.69722 6.9688 7.20946 7.42414
7.61929 7.80083 7.97302 8.1382 8.2971 8.44958 8.59545 8.73507 8.8697
9.00129 9.13205 9.26402 9.39879 9.53735 9.68011 9.82703 9.97771 10.1314
10.2873 10.4442 10.6005 10.7546 10.9043 11.0474 11.1818 11.3052 11.4162
11.5136 11.5969 11.6661 11.7217 11.7643 3.46435 3.28786 3.09659 3.16473
3.45567 3.75287 4.06085 4.38487 4.72946 5.09636 5.48216 5.87675 6.26393
6.62521 6.94602 7.22083 7.45376 7.655 7.83598 8.00596 8.17067 8.33234
8.49045 8.64307 8.78833 8.92566 9.05629 9.1827 9.30781 9.43413 9.56337
9.69643 9.83351 9.97431 10.1183 10.2646 10.4124 10.5607 10.7081 10.8531
10.9939 11.1286 11.2552 11.3719 11.4771 11.57 11.6499 11.7167 11.7708
11.8127 3.48309 3.30445 3.11031 3.17631 3.4658 3.76257 4.07334 4.40648
4.77007 5.16873 5.59951 6.04834 6.48982 6.89351 7.23583 7.5102 7.7273
7.90655 8.06693 8.222 8.37884 8.53878 8.69886 8.85383 8.99896 9.13239
9.25591 9.37361 9.48993 9.60824 9.73048 9.85729 9.98846 10.1233 10.261
10.4005 10.5409 10.6813 10.8204 10.9569 11.0894 11.2161 11.3352 11.4451
11.5446 11.6326 11.7087 11.7726 11.8246 11.865 3.48651 3.30499 3.10737
3.16902 3.453 3.74462 4.05322 4.39149 4.77314 5.20828 5.69634 6.21877
6.73636 7.19866 7.5668 7.83392 8.02346 8.17014 8.30336 8.44147 8.59235
8.75547 8.92363 9.08578 9.232 9.35872 9.46987 9.5733 9.67635 9.78368
9.89723 10.0171 10.1422 10.2714 10.4033 10.5367 10.6704 10.8036 10.9351
11.0639 11.1886 11.3076 11.4196 11.5231 11.6169 11.7001 11.7721 11.8327
11.882 11.9203 3.47351 3.28828 3.08637 3.14097 3.41417 3.69364 3.99147
4.32589 4.71915 5.19088 5.7464 6.36305 6.98241 7.52287 7.92114 8.17214
8.32166 8.42674 8.5292 8.65169 8.80232 8.97805 9.16564 9.34401 9.49345
9.60808 9.69789 9.77876 9.86281 9.95592 10.0593 10.1718 10.2911 10.4152
10.542 10.6699 10.7977 10.9244 11.0491 11.1708 11.2883 11.4004 11.5059
11.6033 11.6916 11.7701 11.838 11.8952 11.9416 11.9774 3.44476 3.25507
3.04806 3.09264 3.34885 3.60677 3.88038 4.19429 4.5831 5.0821 5.70736
6.43253 7.17471 7.81065 8.24421 8.47534 8.5812 8.64525 8.72113 8.8348
8.99492 9.19728 9.42201 9.63163 9.78724 9.87978 9.93431 9.98206 10.0414
10.118 10.2108 10.3163 10.4306 10.5503 10.6728 10.796 10.9187 11.0397
11.1583 11.2737 11.3849 11.4909 11.5904 11.6825 11.766 11.8401 11.9043
11.9581 12.0016 12.0348 3.40283 3.20832 2.99571 3.02774 3.26087 3.48631
3.71732 3.9842 4.33874 4.84196 5.52718 6.36031 7.22717 7.96205 8.43912
8.66536 8.74681 8.78854 8.85314 8.96989 9.15037 9.39328 9.67523 9.93582
10.1007 10.1566 10.1602 10.1667 10.1993 10.2602 10.3442 10.4445 10.5554
10.6721 10.7913 10.9107 11.029 11.1452 11.2586 11.3685 11.4743 11.575
11.6697 11.7573 11.8367 11.9073 11.9682 12.0192 12.06 12.0907 3.35183
3.15285 2.93499 2.95349 3.15976 3.34352 3.51207 3.69696 3.97221 4.44356
5.17317 6.10386 7.07463 7.89075 8.42062 8.67757 8.7766 8.83011 8.90603
9.03838 9.24437 9.52965 9.87329 10.1934 10.3689 10.3826 10.3353 10.3067
10.3199 10.3715 10.4514 10.5502 10.66 10.7754 10.8926 11.0093 11.1241
11.2363 11.3453 11.4509 11.5523 11.649 11.74 11.8242 11.9008 11.9687
12.0273 12.076 12.1146 12.1432 3.29659 3.09449 2.87309 2.87995 3.06108
3.20214 3.29793 3.37131 3.51858 3.91982 4.68959 5.71643 6.76443 7.63003
8.20894 8.52318 8.67595 8.77108 8.87681 9.03134 9.25675 9.56355 9.93412
10.2808 10.4647 10.4678 10.4086 10.3746 10.3877 10.4419 10.5254 10.6272
10.7392 10.8554 10.9722 11.0872 11.1995 11.3086 11.4143 11.5165 11.6149
11.7089 11.7977 11.8801 11.9551 12.0217 12.079 12.1264 12.1636 12.1905
3.24172 3.03879 2.81711 2.81785 2.98366 3.09683 3.13829 3.11398 3.13087
3.45529 4.271 5.38249 6.46653 7.33397 7.92896 8.28802 8.49651 8.64012
8.78024 8.95466 9.18565 9.48203 9.82548 10.1431 10.3313 10.3751 10.3606
10.3599 10.396 10.4663 10.5613 10.6714 10.7887 10.908 11.0258 11.1403
11.2511 11.358 11.4614 11.5616 11.6584 11.7513 11.8395 11.9219 11.997
12.0638 12.1212 12.1684 12.205 12.231 3.19072 2.9898 2.77212 2.77502
2.94235 3.05902 3.10302 3.07419 3.07777 3.40084 4.23624 5.33891 6.36153
7.15288 7.70357 8.0627 8.29852 8.47517 8.64085 8.82698 9.05149 9.31865
9.61109 9.88076 10.0703 10.1697 10.223 10.276 10.3494 10.4452 10.5579
10.6801 10.8056 10.9298 11.05 11.1652 11.2754 11.3811 11.4833 11.5827
11.6795 11.7732 11.8628 11.947 12.0242 12.0929 12.1518 12.2001 12.2373
12.2631 3.14551 2.94928 2.73966 2.75305 2.93964 3.09459 3.20898 3.29814
3.45948 3.89734 4.70648 5.66558 6.50495 7.13429 7.57874 7.89013 8.1182
8.30485 8.48191 8.67088 8.88345 9.12059 9.36934 9.6026 9.7925 9.93299
10.0431 10.1471 10.2595 10.3835 10.5164 10.653 10.7884 10.9191 11.0429
11.1596 11.2699 11.3753 11.4773 11.5772 11.6756 11.772 11.8652 11.9535
12.0348 12.1073 12.1695 12.2203 12.2591 12.2857 3.10644 2.91665 2.71765
2.74683 2.96356 3.17645 3.39507 3.65295 4.02845 4.61702 5.39619 6.17195
6.78051 7.21194 7.52335 7.76304 7.96195 8.14178 8.31886 8.50457 8.70475
8.91872 9.13823 9.34923 9.53869 9.70333 9.85094 9.99314 10.138 10.2876
10.4402 10.5915 10.7376 10.8756 11.0038 11.1226 11.2336 11.339 11.4416
11.5433 11.645 11.7462 11.8454 11.9401 12.0278 12.1061 12.1732 12.2278
12.2693 12.2977 3.07284 2.88992 2.70185 2.74751 2.99489 3.26338 3.57443
3.96683 4.49324 5.1754 5.92319 6.55739 6.98725 7.26486 7.47052 7.64912
7.81857 7.98682 8.15909 8.33916 8.52866 8.72619 8.92694 9.12402 9.31163
9.48838 9.65764 9.82465 9.99306 10.1633 10.3329 10.4981 10.655 10.8007
10.9338 11.055 11.1667 11.2724 11.3759 11.4804 11.587 11.6952 11.8027
11.9063 12.0026 12.0887 12.1623 12.2221 12.2673 12.2982 3.04374 2.86694
2.68812 2.747 3.0175 3.32457 3.69208 4.15211 4.73225 5.41687 6.10342
6.64646 6.99308 7.20714 7.36861 7.52 7.67523 7.837 8.00544 8.18039
8.36132 8.54679 8.73426 8.9208 9.10436 9.28497 9.46458 9.64564 9.82933
10.0146 10.1983 10.376 10.5435 10.6972 10.8356 10.9593 11.0715 11.1771
11.2817 11.3896 11.5027 11.62 11.7383 11.853 11.96 12.0555 12.1369
12.2028 12.2527 12.2867 3.01863 2.84648 2.67418 2.74121 3.02434 3.34976
3.7377 4.2088 4.77119 5.39585 5.99991 6.48505 6.81697 7.03862 7.21002
7.36823 7.52773 7.69179 7.86006 8.03157 8.20543 8.3808 8.55681 8.73294
8.90943 9.08755 9.26923 9.45606 9.6482 9.84373 10.0388 10.2281 10.4064
10.569 10.7134 10.8399 10.9524 11.0574 11.1627 11.2745 11.3954 11.5236
11.6546 11.7824 11.9014 12.0075 12.0976 12.1703 12.2252 12.2628 2.99771
2.82876 2.66031 2.73079 3.01746 3.34557 3.72991 4.18111 4.69609 5.24605
5.77412 6.22034 6.56089 6.81601 7.02187 7.20597 7.38214 7.55531 7.72652
7.89568 8.06268 8.22773 8.39145 8.55505 8.72048 8.89033 9.06731 9.25331
9.44851 9.65075 9.85552 10.0566 10.2469 10.4203 10.5725 10.7031 10.8162
10.9204 11.0262 11.1421 11.2714 11.4117 11.5564 11.6981 11.8298 11.9466
12.0455 12.125 12.185 12.2263 2.98185 2.81518 2.64878 2.7197 3.00447
3.32661 3.69628 4.11774 4.58362 5.07048 5.54147 5.96052 6.3104 6.59732
6.8394 7.05361 7.25055 7.43534 7.61021 7.77635 7.9349 8.08736 8.23574
8.38277 8.53195 8.68739 8.85324 9.03262 9.22657 9.4332 9.64748 9.86179
10.0672 10.2549 10.4185 10.556 10.6719 10.7763 10.8829 11.0029 11.1406
11.2926 11.4506 11.6053 11.7486 11.8752 11.982 12.0678 12.1325 12.1773
2.97213 2.80758 2.64255 2.71298 2.99417 3.30769 3.66044 4.05352 4.47912
4.91973 5.35139 5.75155 6.10726 6.41761 6.68926 6.93021 7.14637 7.34141
7.51786 7.67804 7.82446 7.96001 8.08802 8.21259 8.3388 8.47261 8.62032
8.78728 8.9763 9.18619 9.41134 9.64233 9.86749 10.0751 10.2558 10.4058
10.5288 10.6367 10.7457 10.8699 11.0147 11.1763 11.3448 11.5095 11.6618
11.796 11.9088 11.9994 12.068 12.1158 2.96934 2.80739 2.64398 2.71454
2.99316 3.29917 3.63726 4.00731 4.40275 4.81106 5.21649 5.60425 5.96424
6.29208 6.58723 6.85035 7.08211 7.28358 7.45702 7.60591 7.73435 7.84668
7.94745 8.04191 8.13665 8.2399 8.36108 8.50907 8.68961 8.90278 9.14197
9.395 9.6466 9.88139 10.0869 10.2569 10.3942 10.5112 10.626 10.7548
10.9045 11.0715 11.2456 11.4156 11.5726 11.7107 11.8271 11.9207 11.9919
12.042 2.97364 2.81511 2.65404 2.72618 3.00455 3.30586 3.63321 3.98617
4.35993 4.74608 5.13449 5.51544 5.88106 6.22519 6.54206 6.8254 7.06963
7.27238 7.43586 7.56559 7.66801 7.74908 7.81426 7.86946 7.9225 7.9842
8.06831 8.18928 8.35765 8.57534 8.83379 9.11627 9.40241 9.67253 9.91101
10.1094 10.2693 10.4025 10.5278 10.6623 10.8145 10.982 11.1558 11.3254
11.4822 11.6206 11.7376 11.8322 11.9046 11.9563 2.98454 2.83036 2.6725
2.74786 3.02861 3.32844 3.64917 3.99034 4.34894 4.72005 5.09798 5.4772
5.85231 6.21652 6.55936 6.86604 7.12175 7.31943 7.46296 7.56264 7.62888
7.66943 7.68997 7.69615 7.69618 7.70342 7.73748 7.82136 7.97351 8.19855
8.48391 8.80512 9.13445 9.4473 9.72544 9.95906 10.1485 10.3047 10.4453
10.5873 10.7405 10.9048 11.0734 11.2377 11.39 11.5252 11.6402 11.7339
11.8064 11.8589 3.00112 2.85222 2.6985 2.77871 3.06448 3.36596 3.68376
4.0174 4.36544 4.72609 5.09781 5.47951 5.86948 6.26219 6.6428 6.98368
7.25326 7.43704 7.54586 7.60103 7.61932 7.60999 7.57768 7.52621 7.46269
7.40226 7.37168 7.40667 7.53843 7.77549 8.09763 8.46762 8.84755 9.20777
9.52865 9.80033 10.0229 10.2059 10.3652 10.5169 10.6714 10.831 10.9921
11.1483 11.2935 11.4231 11.5343 11.6258 11.6976 11.7504 3.02221 2.8796
2.73111 2.81799 3.1115 3.4177 3.73576 4.06487 4.40491 4.75706 5.1241
5.51019 5.9195 6.35139 6.78918 7.18588 7.47617 7.63237 7.68572 7.67966
7.63881 7.57219 7.48178 7.36797 7.23484 7.09757 6.99025 6.96553 7.0735
7.32811 7.69628 8.12211 8.55538 8.96225 9.32354 9.63096 9.88526 10.0951
10.2742 10.4372 10.5946 10.7506 10.9044 11.0522 11.1895 11.3127 11.4193
11.5079 11.5784 11.6313 3.04647 2.91137 2.76956 2.86535 3.16982 3.48409
3.80524 4.13151 4.46381 4.80634 5.16648 5.55434 5.9818 6.4578 6.97079
7.45133 7.77334 7.88603 7.8655 7.78775 7.68207 7.55532 7.40679 7.2331
7.03398 6.82239 6.63794 6.55114 6.63473 6.90884 7.32364 7.80163 8.28093
8.7256 9.11858 9.4542 9.73446 9.96737 10.1649 10.3395 10.5014 10.6559
10.8043 10.945 11.0752 11.1924 11.2945 11.3803 11.4495 11.5025 3.07227
2.94611 2.81293 2.9206 3.24021 3.56671 3.89374 4.21752 4.53973 4.86801
5.21463 5.59534 6.02892 6.53407 7.10952 7.67311 8.03464 8.11592 8.04016
7.90436 7.73898 7.55509 7.3547 7.1327 6.88465 6.62019 6.38079 6.24846
6.31237 6.59702 7.03952 7.54715 8.05118 8.51555 8.92555 9.27771 9.57493
9.82451 10.0365 10.2216 10.3887 10.5436 10.6889 10.8246 10.9494 11.0616
11.1599 11.2434 11.3116 11.365 3.0974 2.98167 2.85949 2.98276 3.32293
3.66718 4.00326 4.32348 4.63037 4.93633 5.25916 5.61872 6.03634 6.53241
7.1076 7.68419 8.07946 8.20824 8.16072 8.00829 7.79531 7.56118 7.32105
7.07044 6.80201 6.52266 6.27178 6.1296 6.18375 6.45817 6.89054 7.38913
7.88602 8.34597 8.75498 9.11005 9.41379 9.67226 9.89356 10.0863 10.2581
10.4145 10.5584 10.691 10.8121 10.9208 11.0164 11.0982 11.166 11.2201
3.1188 3.01455 2.90556 3.04829 3.41524 3.78412 4.13292 4.44701 4.73065
5.004 5.29165 5.61585 5.99564 6.44497 6.95879 7.48044 7.90001 8.14845
8.20956 8.07562 7.82489 7.55279 7.29196 7.03756 6.78034 6.52553 6.30705
6.19075 6.24565 6.4905 6.87672 7.32922 7.78854 8.22112 8.61216 8.95725
9.2575 9.51711 9.74208 9.93899 10.1139 10.2716 10.4151 10.546 10.6648
10.7712 10.865 10.9459 11.0138 11.069 3.13256 3.03952 2.9445 3.10867
3.50677 3.9064 4.27108 4.57521 4.82693 5.05862 5.30312 5.58344 5.91397
6.30125 6.73805 7.19358 7.61969 7.96579 8.13378 8.03458 7.77554 7.49867
7.24684 7.01518 6.79488 6.59055 6.42865 6.3559 6.41812 6.62766 6.95279
7.34065 7.74466 8.13493 8.49592 8.82127 9.10998 9.36413 9.5876 9.78501
9.9609 10.1191 10.2623 10.3921 10.5095 10.6146 10.7075 10.7882 10.8566
10.9132 3.13435 3.05012 2.96672 3.14902 3.57483 4.0038 4.38316 4.67426
4.89104 5.08035 5.2825 5.51977 5.80182 6.13019 6.49828 6.89049 7.28403
7.63573 7.83858 7.79873 7.60186 7.37637 7.16945 6.98381 6.81605 6.67169
6.57012 6.54155 6.61353 6.79337 7.06224 7.38624 7.73199 8.07498 8.40033
8.70039 8.97229 9.21617 9.43401 9.6287 9.80336 9.96082 10.1033 10.2323
10.3487 10.4531 10.5456 10.6265 10.6959 10.7542 3.12058 3.04048 2.96249
3.15206 3.58873 4.02952 4.4128 4.69234 4.88548 5.04668 5.21906 5.42338
5.66613 5.94625 6.25744 6.58853 6.92111 7.21686 7.40388 7.42919 7.33421
7.19647 7.05831 6.93229 6.82258 6.73657 6.68858 6.69759 6.7796 6.93879
7.16435 7.43549 7.72959 8.02797 8.31764 8.59076 8.84335 9.07412 9.28352
9.47303 9.64457 9.80006 9.94115 10.0691 10.1847 10.2886 10.3811 10.4625
10.5331 10.5932 3.08977 3.00799 2.92716 3.10876 3.53088 3.95466 4.32414
4.59773 4.78935 4.94671 5.10899 5.2954 5.51159 5.75603 6.02272 6.30149
6.57559 6.81645 6.98475 7.05584 7.04552 6.99185 6.9246 6.85943 6.80524
6.77069 6.76682 6.80588 6.8974 7.04386 7.23907 7.47041 7.723 7.98326
8.24067 8.48805 8.72106 8.93755 9.13695 9.31968 9.4867 9.63917 9.77821
9.90475 10.0195 10.123 10.2156 10.2977 10.3695 10.4315 2.53599 2.38223
2.22364 2.254 2.44051 2.62397 2.80279 2.97739 3.15534 3.35161 3.56954
3.79615 4.021 4.24055 4.45408 4.66141 4.86228 5.05627 5.24299 5.42217
5.59382 5.75835 5.91659 6.06981 6.21965 6.36796 6.5167 6.66773 6.82265
6.98266 7.14851 7.32043 7.49819 7.68117 7.86842 8.05875 8.25084 8.44318
8.63416 8.822 9.00476 9.18036 9.34664 9.50148 9.64304 9.76994 9.88143
9.97742 10.0585 10.1257 2.58143 2.42603 2.2656 2.29769 2.48924 2.67825
2.86345 3.0456 3.23158 3.43374 3.65492 3.88456 4.11333 4.33751 4.55598
4.76822 4.97367 5.17165 5.36153 5.54286 5.71553 5.87995 6.03704 6.18826
6.33553 6.48102 6.62706 6.77582 6.92922 7.08871 7.2552 7.42902 7.60999
7.79746 7.99043 8.18763 8.38762 8.58875 8.78918 8.98688 9.1795 9.36447
9.53903 9.70047 9.84642 9.97519 10.086 10.1789 10.255 10.3159 2.62853
2.47165 2.30958 2.34391 2.54152 2.73773 2.93202 3.1256 3.32339 3.53251
3.75464 3.98402 4.21417 4.44144 4.66404 4.88083 5.09077 5.29278 5.4859
5.66944 5.84313 6.00734 6.16308 6.31203 6.45639 6.59869 6.7416 6.88768
7.03914 7.19769 7.36443 7.53982 7.72374 7.91554 8.11421 8.31841 8.52659
8.73697 8.94754 9.15593 9.3594 9.55475 9.7385 9.90715 10.0577 10.1879
10.2971 10.3858 10.4556 10.5087 2.67728 2.51903 2.35545 2.39235 2.59659
2.8007 3.00463 3.20957 3.41844 3.63468 3.85913 4.08905 4.32058 4.55066
4.77715 4.9984 5.21284 5.41898 5.61547 5.80131 5.97606 6.14003 6.29434
6.44087 6.58211 6.72096 6.86047 7.00353 7.15269 7.3099 7.47648 7.65303
7.83952 8.03533 8.23945 8.45051 8.66691 8.88674 9.10781 9.32747 9.5425
9.74905 9.94273 10.1191 10.2742 10.4054 10.5121 10.5953 10.6573 10.7014
2.72762 2.56808 2.403 2.44261 2.65367 2.86561 3.07854 3.29332 3.51151
3.7347 3.96321 4.19569 4.42984 4.66328 4.89391 5.11973 5.33879 5.54918
5.74916 5.93741 6.11331 6.27711 6.43 6.5741 6.7122 6.84755 6.98353
7.12339 7.26997 7.42549 7.59148 7.7687 7.95722 8.15653 8.36562 8.58312
8.80737 9.03641 9.26789 9.49888 9.7257 9.94378 10.1477 10.3319 10.4915
10.6232 10.7264 10.8028 10.8561 10.8902 2.77953 2.6187 2.45209 2.4944
2.71224 2.93164 3.15272 3.37597 3.60218 3.83207 4.0657 4.30225 4.54023
4.77778 5.0129 5.24348 5.46726 5.68196 5.8855 6.07626 6.25342 6.41717
6.56881 6.71066 6.84579 6.97778 7.11033 7.24698 7.39083 7.54438 7.70934
7.88668 8.0766 8.27868 8.49198 8.71513 8.94646 9.18392 9.42504 9.66668
9.90471 10.1339 10.3477 10.5394 10.7029 10.8344 10.9334 11.0025 11.0464
11.0704 2.833 2.67086 2.50262 2.54758 2.77207 2.99857 3.22709 3.45789
3.69132 3.92768 4.16689 4.40833 4.65091 4.89307 5.13294 5.36832 5.59676
5.81571 6.02276 6.21605 6.39457 6.55849 6.70917 6.84913 6.9817 7.11071
7.24013 7.37374 7.51488 7.66626 7.82981 8.00669 8.19726 8.40123 8.6177
8.84535 9.08246 9.32693 9.57616 9.82681 10.0744 10.313 10.5353 10.7333
10.8998 11.0305 11.1251 11.1871 11.2222 11.2369 2.88806 2.72457 2.5546
2.60212 2.83316 3.06647 3.30197 3.53972 3.77988 4.02249 4.2674 4.51407
4.76156 5.00851 5.2531 5.4931 5.72593 5.94884 6.15919 6.35491 6.53487
6.6992 6.84936 6.98799 7.11861 7.24526 7.37207 7.50302 7.64161 7.79075
7.95257 8.12841 8.31882 8.52361 8.74199 8.97262 9.21375 9.46317 9.71819
9.97525 10.2296 10.4748 10.7029 10.905 11.0732 11.2026 11.2933 11.3493
11.3774 11.3847 2.94475 2.77989 2.60807 2.65811 2.89564 3.13556 3.37773
3.6221 3.86865 4.11732 4.36788 4.61981 4.87223 5.12385 5.37288 5.61707
5.85378 6.08012 6.29335 6.49127 6.67268 6.83771 6.98786 7.12586 7.25533
7.38041 7.50534 7.63417 7.77054 7.91749 8.07733 8.25159 8.44099 8.64547
8.86428 9.09609 9.33907 9.5909 9.8487 10.1088 10.3661 10.614 10.8442
11.0474 11.2154 11.3433 11.4311 11.4834 11.5073 11.5102 3.00314 2.83689
2.66314 2.71565 2.95966 3.20611 3.45477 3.70553 3.95828 4.21286 4.46898
4.72608 4.98328 5.23927 5.49229 5.74006 5.97993 6.20901 6.42452 6.62427
6.80706 6.97304 7.12373 7.26187 7.3911 7.51553 7.6394 7.76679 7.90139
8.04632 8.20404 8.37623 8.56378 8.76673 8.98439 9.21539 9.4578 9.70916
9.96641 10.2256 10.4817 10.728 10.9561 11.1571 11.323 11.4492 11.5357
11.587 11.61 11.612 3.0633 2.89566 2.71988 2.77485 3.02538 3.27832
3.53341 3.79047 4.04934 4.30978 4.57142 4.83362 5.09543 5.35549 5.61199
5.86267 6.10491 6.3359 6.55299 6.75408 6.93809 7.10519 7.2569 7.39592
7.52578 7.65049 7.77419 7.90088 8.03423 8.17741 8.33295 8.50266 8.68756
8.88777 9.10265 9.33078 9.57014 9.81812 10.0715 10.3262 10.577 10.8175
11.0398 11.2356 11.3978 11.5221 11.6087 11.6614 11.6865 11.6908 3.12524
2.95623 2.77835 2.83579 3.0929 3.35235 3.61387 3.87724 4.14228 4.40868
4.67596 4.94336 5.20979 5.47375 5.73335 5.98635 6.2302 6.46229 6.68018
6.88205 7.06697 7.23522 7.3883 7.52879 7.66003 7.78584 7.91017 8.03688
8.16954 8.31127 8.46465 8.63155 8.81306 9.00939 9.2199 9.44317 9.67711
9.919 10.1655 10.4125 10.6548 10.8864 11.1001 11.2887 11.4459 11.5682
11.6557 11.7115 11.7409 11.7499 3.18889 3.01856 2.83851 2.89843 3.16218
3.42819 3.69619 3.966 4.23744 4.51013 4.78347 5.0565 5.32786 5.59586
5.85846 6.11338 6.35823 6.59065 6.80859 7.01057 7.19597 7.3652 7.51975
7.66205 7.7952 7.92274 8.04836 8.17569 8.30814 8.44874 8.60001 8.76384
8.94132 9.13272 9.33742 9.55403 9.78045 10.0139 10.2512 10.488 10.7197
10.9404 11.1439 11.324 11.4756 11.5958 11.6844 11.744 11.7789 11.7938
3.254 3.08241 2.90014 2.96251 3.23294 3.50554 3.78014 4.05666 4.33496
4.61463 4.89488 5.17444 5.45159 5.72425 5.99012 6.24687 6.49227 6.72433
6.94151 7.14283 7.32808 7.49788 7.65374 7.79789 7.93318 8.06281 8.19014
8.31852 8.45113 8.59084 8.74005 8.90058 9.0735 9.25908 9.45677 9.66521
9.88241 10.1057 10.3319 10.5571 10.7767 10.9856 11.1783 11.3496 11.4954
11.6131 11.7028 11.7661 11.8064 11.8277 3.32006 3.14727 2.96272 3.02748
3.30455 3.58372 3.86506 4.1487 4.43465 4.72247 5.01112 5.29887 5.58338
5.86197 6.1319 6.39068 6.63628 6.86725 7.08272 7.2824 7.46663 7.63634
7.79304 7.93882 8.07618 8.20795 8.33713 8.46673 8.59967 8.73859 8.88574
9.04279 9.21074 9.38984 9.57959 9.77876 9.98553 10.1975 10.4115 10.6242
10.8313 11.0281 11.2101 11.3727 11.5125 11.6276 11.7177 11.7841 11.8293
11.8564 3.38611 3.21221 3.02532 3.09229 3.37579 3.66142 3.94964 4.241
4.53579 4.83361 5.13306 5.4317 5.72621 6.01289 6.28823 6.54947 6.79488
7.02376 7.23621 7.43293 7.61495 7.78361 7.94048 8.08739 8.2265 8.36017
8.49102 8.62171 8.75488 8.89294 9.03791 9.19129 9.35399 9.52619 9.70744
9.89669 10.0923 10.2922 10.4937 10.6936 10.8881 11.0732 11.2447 11.3989
11.5329 11.645 11.7348 11.8033 11.8523 11.8843 3.45063 3.27567 3.08634
3.15522 3.44467 3.73645 4.03165 4.33154 4.63691 4.9475 5.26146 5.57523
5.88387 6.18197 6.46472 6.72892 6.97333 7.19845 7.4059 7.59775 7.77599
7.94242 8.0986 8.24604 8.38637 8.52146 8.65348 8.78479 8.91776 9.0546
9.19712 9.34664 9.50391 9.66904 9.84163 10.0208 10.2051 10.3929 10.5818
10.769 10.9513 11.125 11.2865 11.4325 11.5606 11.6692 11.7579 11.8274
11.879 11.9146 3.51129 3.33527 3.14337 3.21362 3.50818 3.80547 4.10762
4.417 4.73535 5.06277 5.39681 5.73221 6.06135 6.37586 6.66872 6.93606
7.17762 7.39604 7.59535 7.7796 7.95206 8.11495 8.26965 8.41704 8.55801
8.6938 8.82614 8.95715 9.08908 9.224 9.36359 9.50899 9.66075 9.8189
9.983 10.1523 10.3256 10.5016 10.6783 10.8534 11.0239 11.1867 11.3385
11.4765 11.5985 11.703 11.7898 11.8591 11.9119 11.9497 3.56486 3.38766
3.19303 3.2638 3.56206 3.86374 4.17245 4.49235 4.82677 5.17665 5.539
5.90591 6.2653 6.60363 6.91002 7.17966 7.41448 7.62102 7.80724 7.98013
8.14445 8.30268 8.45549 8.60263 8.74378 8.87934 9.01066 9.13986 9.26932
9.40119 9.5371 9.67801 9.82424 9.97564 10.1317 10.2917 10.4548 10.6196
10.7848 10.9483 11.1076 11.2598 11.4023 11.5323 11.6479 11.7479 11.8318
11.8997 11.9525 11.9911 3.60733 3.42863 3.23101 3.30105 3.60086 3.90501
4.21923 4.55029 4.90429 5.28408 5.68643 6.09975 6.50446 6.87767 7.20158
7.47036 7.69077 7.87665 8.04243 8.1991 8.35297 8.50619 8.65781 8.80538
8.94659 9.08068 9.20888 9.33383 9.45857 9.58567 9.7168 9.85269 9.99338
10.1384 10.2871 10.4387 10.5923 10.7469 10.9014 11.054 11.2026 11.3448
11.4781 11.6001 11.7091 11.8039 11.884 11.9496 12.0011 12.0393 3.6343
3.45353 3.25253 3.32011 3.61832 3.92182 4.23906 4.58068 4.95731 5.3758
5.83401 6.3157 6.78892 7.2137 7.55929 7.81935 8.01138 8.16284 8.29815
8.43317 8.57527 8.72507 8.87841 9.02884 9.1706 9.30135 9.42291 9.53966
9.65627 9.77612 9.90097 10.0312 10.1663 10.3054 10.4474 10.5915 10.7366
10.8821 11.0267 11.1692 11.3078 11.4403 11.5645 11.6785 11.7807 11.8699
11.9457 12.008 12.0571 12.0938 3.64187 3.45819 3.25328 3.31608 3.60831
3.90619 4.22142 4.56998 4.96974 5.43518 5.96859 6.54916 7.12573 7.62701
7.99757 8.23291 8.37384 8.4719 8.56522 8.67423 8.80586 8.95753 9.11965
9.27859 9.42228 9.54628 9.65498 9.75712 9.86054 9.96988 10.0867 10.2106
10.3402 10.4738 10.6099 10.7473 10.885 11.0221 11.1579 11.2911 11.4202
11.5435 11.6591 11.7653 11.8605 11.9439 12.0149 12.0733 12.1194 12.1537