# vtk DataFile Version 3.0
vtk output
ASCII
DATASET RECTILINEAR_GRID
FIELD FieldData 2
base_index 1 3 int
0 0 0
avtOriginalBounds 1 6 double
-10 10 -10 10 -10 10
DIMENSIONS 50 50 50
X_COORDINATES 50 float
-10 -9.59184 -9.18367 -8.77551 -8.36735 -7.95918 -7.55102 -7.14286 -6.73469
-6.32653 -5.91837 -5.5102 -5.10204 -4.69388 -4.28571 -3.87755 -3.46939 -3.06122
-2.65306 -2.2449 -1.83673 -1.42857 -1.02041 -0.612245 -0.204082 0.204082 0.612245
1.02041 1.42857 1.83673 2.2449 2.65306 3.06122 3.46939 3.87755 4.28572
4.69388 5.10204 5.5102 5.91837 6.32653 6.73469 7.14286 7.55102 7.95918
8.36735 8.77551 9.18367 9.59184 10
Y_COORDINATES 50 float
-10 -9.59184 -9.18367 -8.77551 -8.36735 -7.95918 -7.55102 -7.14286 -6.73469
-6.32653 -5.91837 -5.5102 -5.10204 -4.69388 -4.28571 -3.87755 -3.46939 -3.06122
-2.65306 -2.2449 -1.83673 -1.42857 -1.02041 -0.612245 -0.204082 0.204082 0.612245
1.02041 1.42857 1.83673 2.2449 2.65306 3.06122 3.46939 3.87755 4.28572
4.69388 5.10204 5.5102 5.91837 6.32653 6.73469 7.14286 7.55102 7.95918
8.36735 8.77551 9.18367 9.59184 10
Z_COORDINATES 50 float
-10 -9.59184 -9.18367 -8.77551 -8.36735 -7.95918 -7.55102 -7.14286 -6.73469
-6.32653 -5.91837 -5.5102 -5.10204 -4.69388 -4.28571 -3.87755 -3.46939 -3.06122
-2.65306 -2.2449 -1.83673 -1.42857 -1.02041 -0.612245 -0.204082 0.204082 0.612245
1.02041 1.42857 1.83673 2.2449 2.65306 3.06122 3.46939 3.87755 4.28572
4.69388 5.10204 5.5102 5.91837 6.32653 6.73469 7.14286 7.55102 7.95918
8.36735 8.77551 9.18367 9.59184 10
CELL_DATA 117649
POINT_DATA 125000
SCALARS temp float
LOOKUP_TABLE default
4.17068 4.03195 3.88723 3.73638 3.5793 3.41608 3.24752 3.07625 2.90761
2.74668 2.5919 2.43658 2.27608 2.38439 2.58225 2.77788 2.97067 3.16006
3.34556 3.52679 3.70355 3.87589 4.04411 4.20879 4.37076 4.53101 4.69066
4.8508 5.01245 5.17644 5.34335 5.51349 5.68688 5.86326 6.04217 6.22293
6.40466 6.58638 6.76693 6.94502 7.11922 7.28801 7.4498 7.60308 7.74649
7.87899 7.99997 8.10921 8.20696 8.29379 4.24343 4.10409 3.95854 3.80671
3.64854 3.48422 3.31465 3.14238 2.97223 2.80853 2.64987 2.49045 2.32602
2.43655 2.63871 2.8386 3.03547 3.22862 3.41745 3.60146 3.78039 3.95425
4.12338 4.28843 4.45036 4.61033 4.76965 4.92961 5.09139 5.256 5.42413
5.59618 5.77224 5.95208 6.1352 6.32089 6.50823 6.69612 6.88327 7.06819
7.24923 7.42452 7.59213 7.75018 7.89701 8.03139 8.15263 8.26063 8.35586
8.43917 4.31871 4.17906 4.0331 3.88084 3.72238 3.55813 3.38911 3.21757
3.04698 2.88 2.7156 2.54999 2.38003 2.49213 2.69831 2.90233 3.10326
3.30023 3.49245 3.67931 3.86044 4.03581 4.20579 4.37111 4.53287 4.69241
4.8512 5.01076 5.17246 5.33746 5.50659 5.68037 5.85893 6.04209 6.22936
6.42 6.61304 6.80729 7.00133 7.19348 7.38177 7.56401 7.73783 7.90091
8.05119 8.18722 8.30827 8.4144 8.50638 8.58543 4.39644 4.25675 4.11066
3.95831 3.79995 3.63615 3.46795 3.2971 3.12574 2.95525 2.785 2.61288
2.4369 2.55038 2.76052 2.96866 3.17368 3.37452 3.57021 3.75998 3.94336
4.12028 4.2911 4.45667 4.61819 4.77718 4.93533 5.09434 5.25576 5.42093
5.59084 5.76609 5.94691 6.13317 6.3244 6.51986 6.71852 6.91914 7.12015
7.31968 7.51547 7.70493 7.88518 8.05339 8.20706 8.34445 8.46481 8.56844
8.65649 8.73064 4.47655 4.33697 4.1909 4.03855 3.88028 3.7167 3.54876
3.37769 3.20479 3.03075 2.85526 2.6772 2.49542 2.61044 2.82467 3.03701
3.24619 3.45098 3.65021 3.84297 4.02866 4.20717 4.37889 4.54472 4.70601
4.86446 5.02192 5.18028 5.34129 5.50644 5.67687 5.85331 6.03607 6.2251
6.41995 6.61988 6.82387 7.03058 7.23835 7.44511 7.64832 7.84494 8.03158
8.20482 8.36165 8.50004 8.61925 8.71986 8.80347 8.8723 4.55891 4.41956
4.27353 4.12108 3.96264 3.7988 3.63034 3.45817 3.28307 3.10549 2.92529
2.74192 2.55476 2.67162 2.89013 3.10677 3.32018 3.52894 3.73176 3.92756
4.11564 4.29582 4.46853 4.63473 4.7959 4.95387 5.11069 5.2684 5.42892
5.59389 5.7646 5.94191 6.12622 6.31755 6.51552 6.71939 6.92813 7.14035
7.35428 7.56769 7.77776 7.98103 8.17361 8.35144 8.51103 8.65002 8.76771
8.86501 8.94403 9.00749 4.64346 4.50437 4.35833 4.20562 4.04668 3.88205
3.71241 3.53843 3.3607 3.17954 2.99496 2.80671 2.61449 2.73342 2.95635
3.17736 3.395 3.60773 3.81413 4.01297 4.20349 4.38545 4.55928 4.72603
4.88727 5.04497 5.20129 5.35843 5.51845 5.68313 5.85389 6.03171 6.21712
6.41019 6.61061 6.81766 7.03029 7.24707 7.46614 7.68511 7.90092 8.10977
8.30727 8.48886 8.65055 8.78973 8.90574 8.99982 9.07454 9.13315 4.73013
4.59134 4.44521 4.29205 4.13228 3.96642 3.79507 3.61881 3.43811 3.2533
3.06447 2.87156 2.67444 2.79556 3.02296 3.24832 3.4701 3.68671 3.89659
4.09844 4.29142 4.47526 4.6504 4.81794 4.97953 5.13723 5.2933 5.45004
5.60963 5.77396 5.94457 6.12255 6.30854 6.50271 6.70476 6.91402 7.12941
7.34945 7.5722 7.79514 8.01501 8.22776 8.42863 8.61269 8.77559 8.91457
9.029 9.12038 9.19166 9.24643 4.8189 4.68043 4.53414 4.38035 4.21947
4.05202 3.87858 3.69967 3.51577 3.3272 3.13413 2.93661 2.73464 2.85797
3.0898 3.31938 3.54514 3.76543 3.97863 4.18338 4.3788 4.56461 4.74127
4.90989 5.07217 5.23023 5.38637 5.54296 5.70225 5.86622 6.03651 6.21431
6.40035 6.59488 6.79765 7.00799 7.22479 7.44652 7.67116 7.89607 8.11787
8.33235 8.53459 8.71948 8.88254 9.02095 9.13415 9.22374 9.29287 9.34528
4.90971 4.77161 4.62511 4.47054 4.30832 4.13902 3.96319 3.78139 3.59409
3.40165 3.20429 3.00214 2.79528 2.92076 3.15692 3.39055 3.62006 3.84377
4.06004 4.26752 4.46532 4.65318 4.83154 5.00155 5.1649 5.32371 5.48029
5.63704 5.79622 5.95988 6.12971 6.30701 6.49257 6.6867 6.8892 7.09938
7.31611 7.5378 7.76234 7.98703 8.20841 8.42226 8.62367 8.80762 8.96974
9.10728 9.2197 9.3086 9.37708 9.42881 5.00249 4.86482 4.71809 4.56261
4.39889 4.22751 4.04909 3.86423 3.67341 3.47703 3.27535 3.06853 2.85668
2.98429 3.22469 3.46219 3.69518 3.92201 4.14107 4.35106 4.55113 4.74106
4.92129 5.09297 5.25774 5.41769 5.5751 5.73233 5.89162 6.05505 6.22434
6.40084 6.5854 6.77837 6.97959 7.18836 7.40352 7.62342 7.8459 8.0682
8.2869 8.49786 8.6964 8.87778 9.03793 9.17431 9.2864 9.37565 9.44487
9.49753 5.09702 4.95989 4.81291 4.65646 4.49109 4.31749 4.13636 3.94835
3.754 3.55371 3.34773 3.13624 2.91937 3.04913 3.29375 3.53499 3.77125
4.0009 4.22245 4.4347 4.63688 4.82883 5.01103 5.18458 5.35109 5.51253
5.67112 5.82912 5.98875 6.15204 6.32072 6.49616 6.67925 6.87035 7.06932
7.27548 7.48764 7.70412 7.92274 8.14076 8.35485 8.56106 8.75508 8.9326
9.08998 9.22496 9.337 9.42732 9.49835 9.55315 5.19294 5.05645 4.90924
4.75174 4.58463 4.40873 4.22486 4.03376 3.83601 3.63198 3.42189 3.20587
2.98402 3.1161 3.36508 3.61005 3.84942 4.08165 4.30539 4.5196 4.72366
4.91752 5.10169 5.27723 5.44567 5.60886 5.76889 5.92793 6.08808 6.25132
6.41935 6.5935 6.77468 6.96326 7.15912 7.36159 7.56948 7.78115 7.99443
8.20668 8.4147 8.61486 8.80323 8.97602 9.13007 9.26339 9.37546 9.4672
9.54062 9.59831 5.28955 5.15383 5.0064 4.84779 4.67887 4.50064 4.31413
4.12018 3.91938 3.71206 3.49831 3.27811 3.05149 3.18628 3.43996 3.68882
3.93126 4.16585 4.39147 4.60729 4.81294 5.0085 5.19453 5.37205 5.54249
5.70757 5.86921 6.02943 6.19023 6.35346 6.52076 6.69343 6.87233 7.05786
7.24987 7.44775 7.65036 7.85612 8.06297 8.26838 8.4694 8.66269 8.84478
9.01237 9.16274 9.29417 9.40612 9.49927 9.5752 9.63601 5.38577 5.25091
5.10323 4.94344 4.77265 4.59217 4.40327 4.20694 4.00379 3.79399 3.5774
3.35374 3.12282 3.26101 3.52003 3.7731 4.01864 4.25539 4.48251 4.69953
4.90636 5.10329 5.29096 5.47035 5.64274 5.80971 5.97298 6.1344 6.29584
6.45904 6.62553 6.79652 6.97285 7.15488 7.3425 7.53513 7.73173 7.93082
8.13051 8.32845 8.52195 8.708 8.88356 9.04574 9.19223 9.32152 9.43307
9.52733 9.6055 9.66928 5.47991 5.34593 5.19792 5.03682 4.86412 4.68154
4.49071 4.29282 4.08846 3.87755 3.65953 3.43365 3.19928 3.34196 3.60726
3.86506 4.11375 4.35236 4.58047 4.7981 5.00558 5.20346 5.39245 5.57348
5.74767 5.91637 6.08114 6.24364 6.40558 6.56859 6.7341 6.90324 7.07676
7.255 7.43786 7.62483 7.81498 8.00699 8.19914 8.38933 8.57513 8.75387
8.92286 9.07961 9.22209 9.34897 9.45973 9.55462 9.63453 9.70078 5.56952
5.43632 5.28778 5.12517 4.95048 4.76604 4.57398 4.37577 4.17195 3.96208
3.74488 3.51877 3.28241 3.43121 3.70413 3.96728 4.21906 4.45896 4.68725
4.90467 5.1121 5.3104 5.50036 5.68278 5.85853 6.02872 6.19467 6.35791
6.52002 6.68253 6.8468 7.01386 7.18439 7.35867 7.53662 7.71778 7.90133
8.08613 8.27068 8.45311 8.63128 8.80281 8.96534 9.11667 9.25503 9.37924
9.48875 9.58367 9.66465 9.73271 5.65129 5.51855 5.36909 5.20461 5.0278
4.84179 4.64943 4.45263 4.2519 4.04624 3.83329 3.61011 3.37406 3.53134
3.81367 4.08278 4.33724 4.57735 4.80452 5.02054 5.22706 5.42526 5.61592
5.79953 5.9766 6.1479 6.31453 6.47789 6.63957 6.80107 6.96369 7.1284
7.29578 7.46606 7.63912 7.81453 7.99161 8.16935 8.34646 8.52134 8.69209
8.85661 9.01282 9.15878 9.29291 9.41413 9.5219 9.61623 9.69756 9.76665
5.72102 5.58811 5.43706 5.27012 5.09089 4.90354 4.71196 4.51875 4.32454
4.12757 3.92395 3.70852 3.47641 3.64556 3.93954 4.215 4.47098 4.70934
4.93335 5.14638 5.35102 5.54877 5.74013 5.92501 6.10327 6.27519 6.44168
6.60421 6.76448 6.92414 7.08452 7.24651 7.41061 7.57692 7.74525 7.91519
8.0861 8.25713 8.42717 8.59484 8.75847 8.91624 9.0663 9.20692 9.33669
9.45463 9.5602 9.6533 9.73425 9.80361 5.77392 5.63977 5.48609 5.31575
5.13342 4.94467 4.75479 4.56757 4.38405 4.20179 4.01471 3.81424 3.5917
3.77753 4.0859 4.36744 4.62249 4.85578 5.07365 5.28171 5.48367 5.68114
5.8739 6.06069 6.24023 6.41211 6.57719 6.73731 6.89467 7.05128 7.20857
7.36739 7.52804 7.69048 7.85436 8.01922 8.18443 8.34923 8.51268 8.67356
8.83046 8.98177 9.12585 9.26119 9.38651 9.5009 9.60384 9.69516 9.77505
9.84394 5.80516 5.66822 5.5104 5.3352 5.14847 4.95744 4.76942 4.59008
4.42169 4.26145 4.10065 3.92561 3.72123 3.93051 4.25637 4.54246 4.79212
5.01535 5.22319 5.42424 5.62338 5.8219 6.01808 6.20848 6.38979 6.56062
6.72217 6.87738 7.02957 7.18142 7.33453 7.4896 7.64667 7.80537 7.96515
8.1254 8.28545 8.44458 8.60197 8.75657 8.90715 9.05233 9.19068 9.32084
9.44168 9.55235 9.65232 9.74141 9.8197 9.88748 5.81085 5.66915 5.50518
5.32296 5.12946 4.93378 4.74586 4.57447 4.42454 4.29406 4.17156 4.03622
3.86259 4.1045 4.45106 4.73826 4.97579 5.18255 5.37628 5.56902 5.76668
5.96964 6.17358 6.37113 6.55527 6.72322 6.87756 7.02389 7.16767 7.31255
7.46022 7.611 7.76439 7.91957 8.07565 8.23179 8.38725 8.5413 8.6932
8.84205 8.98679 9.12625 9.25917 9.38437 9.50081 9.60771 9.70456 9.79111
9.86738 9.93358 5.78918 5.64048 5.46798 5.27584 5.07177 4.86662 4.67356
4.50613 4.37449 4.27972 4.20822 4.12986 4.00368 4.28936 4.65949 4.94283
5.16072 5.34532 5.5225 5.70771 5.9076 6.1214 6.34101 6.5522 6.74091
6.90235 7.04316 7.17463 7.30579 7.44128 7.58239 7.72854 7.87838 8.03041
8.18326 8.33583 8.48726 8.63681 8.7838 8.92746 9.06691 9.20114 9.32907
9.44965 9.56194 9.66521 9.75894 9.84286 9.91689 9.98119 5.74127 5.58352
5.4001 5.19467 4.97474 4.75216 4.54348 4.36905 4.24838 4.19003 4.17964
4.17496 4.11394 4.45344 4.84954 5.12621 5.32167 5.48393 5.64677 5.82851
6.03686 6.27087 6.51837 6.75389 6.94952 7.09754 7.21486 7.3238 7.43806
7.56239 7.69656 7.83835 7.98515 8.1346 8.28481 8.43439 8.58236 8.72798
8.87065 9.00974 9.14451 9.27412 9.39764 9.51413 9.62272 9.72271 9.81355
9.89493 9.96673 10.029 5.67139 5.50332 5.30736 5.08566 4.84404 4.59345
4.35256 4.15021 4.02186 3.99204 4.04769 4.12809 4.14402 4.53977 4.96419
5.24115 5.42438 5.57482 5.73225 5.91764 6.14119 6.40451 6.69355 6.96719
7.17206 7.2964 7.37892 7.45929 7.55502 7.66869 7.79711 7.9358 8.08068
8.22846 8.37678 8.524 8.66909 8.81137 8.95033 9.08551 9.21631 9.34205
9.46192 9.57504 9.6806 9.77786 9.86627 9.94544 10.0152 10.0756 5.58638
5.40818 5.19978 4.96093 4.69384 4.40531 4.11223 3.851 3.68211 3.66357
3.78843 3.96164 4.05656 4.49911 4.9533 5.24853 5.44286 5.60119 5.7665
5.96282 6.20428 6.49749 6.83058 7.1478 7.3625 7.45873 7.50605 7.56195
7.64435 7.75186 7.87796 8.01605 8.16076 8.30813 8.45545 8.60102 8.74385
8.88338 9.0193 9.1513 9.27897 9.40175 9.51889 9.62958 9.73298 9.82832
9.91497 9.99247 10.0606 10.1193 5.49432 5.30807 5.09011 4.83741 4.54726
4.21904 3.8615 3.51178 3.26161 3.23177 3.43429 3.71018 3.87869 4.35046
4.82879 5.15515 5.38043 5.56375 5.74757 5.95817 6.21258 6.5206 6.87266
7.20906 7.43057 7.51999 7.55933 7.6118 7.69461 7.80455 7.93371 8.07463
8.2214 8.36984 8.51721 8.66189 8.8031 8.94053 9.07411 9.20376 9.32925
9.45011 9.56567 9.67508 9.77742 9.87184 9.95761 10.0342 10.1013 10.1587
5.40287 5.21252 4.99094 4.73311 4.43225 4.08028 3.67458 3.24372 2.90221
2.84878 3.12775 3.49344 3.70788 4.18165 4.6641 5.01291 5.26915 5.48067
5.68505 5.90759 6.16486 6.46502 6.7975 7.11257 7.33584 7.45335 7.52446
7.60104 7.70074 7.82278 7.96082 8.10815 8.25931 8.41035 8.5588 8.70338
8.84363 8.97961 9.11159 9.23979 9.36416 9.48434 9.59963 9.70909 9.81169
9.90641 9.99236 10.0689 10.1356 10.1925 5.31787 5.1285 4.91123 4.66116
4.37088 4.03046 3.63329 3.20228 2.85299 2.80389 3.1023 3.46516 3.64767
4.07839 4.53151 4.87663 5.14637 5.37604 5.5948 5.82336 6.07482 6.35362
6.64918 6.92859 7.15051 7.30579 7.4245 7.53945 7.66622 7.807 7.9582
8.11478 8.27221 8.42717 8.57766 8.72283 8.86272 8.99787 9.129 9.25668
9.3811 9.50196 9.61848 9.72956 9.83391 9.93029 10.0176 10.0952 10.1624
10.2193 5.24252 5.05898 4.85373 4.62426 4.36685 4.07733 3.75735 3.43556
3.20682 3.21323 3.44666 3.67718 3.7299 4.0678 4.45808 4.77225 5.03454
5.268 5.49189 5.72037 5.96205 6.21858 6.48194 6.73353 6.95325 7.13577
7.29388 7.44492 7.59961 7.76089 7.92695 8.09421 8.25909 8.4189 8.57214
8.71846 8.85845 8.99326 9.12419 9.25228 9.37799 9.50103 9.62045 9.73485
9.8426 9.94217 10.0322 10.1119 10.1805 10.2381 5.1774 5.00301 4.81474
4.61382 4.40238 4.18519 3.97524 3.80516 3.73424 3.80658 3.95176 4.00584
3.88791 4.11207 4.4255 4.69539 4.93764 5.16456 5.38631 5.61065 5.84212
6.08094 6.32205 6.55586 6.77304 6.97078 7.15431 7.33192 7.50959 7.68922
7.86947 8.04748 8.22021 8.38536 8.54178 8.68957 8.82988 8.96462 9.09583
9.22517 9.3534 9.48022 9.60435 9.72392 9.83684 9.94114 10.0353 10.1181
10.1891 10.2481 5.12139 4.95716 4.78675 4.61496 4.44893 4.29973 4.18525
4.13212 4.16508 4.26696 4.33769 4.256 4.00645 4.14225 4.39442 4.62648
4.84873 5.06627 5.28286 5.50153 5.72394 5.94968 6.17587 6.39794 6.61181
6.81636 7.01393 7.2083 7.40227 7.59627 7.78864 7.97653 8.15696 8.32762
8.48742 8.63673 8.7773 8.91191 9.04362 9.17488 9.30684 9.43907 9.5698
9.69645 9.81628 9.92686 10.0263 10.1133 10.1874 10.2485 5.0729 4.91774
4.76241 4.6141 4.48252 4.38035 4.32301 4.32511 4.38663 4.46604 4.46968
4.31381 4.00979 4.10933 4.33448 4.54839 4.75983 4.97123 5.18338 5.39679
5.61163 5.82736 6.04257 6.25544 6.46464 6.67024 6.87372 7.07696 7.28098
7.48512 7.68713 7.88374 8.07156 8.24785 8.41118 8.56195 8.70247 8.83659
8.96868 9.10232 9.23912 9.37837 9.51751 9.65305 9.7814 9.89956 10.0053
10.0974 10.1752 10.2389 5.03105 4.88264 4.73772 4.60438 4.49268 4.41354
4.37642 4.38417 4.42273 4.4487 4.39388 4.20905 3.90881 4.01325 4.24119
4.45659 4.66836 4.87912 5.08925 5.29861 5.507 5.71418 5.91981 6.12371
6.32622 6.52841 6.73184 6.93787 7.14682 7.35743 7.56691 7.77138 7.96663
8.14901 8.31633 8.46869 8.60885 8.74196 8.87413 9.01038 9.1529 9.30055
9.44966 9.59549 9.73353 9.86015 9.97293 10.0705 10.1524 10.219 4.99618
4.85224 4.71315 4.58687 4.48245 4.40801 4.3673 4.35532 4.35312 4.3252
4.22852 4.03724 3.76198 3.88632 4.13051 4.35845 4.57807 4.79255 5.00278
5.20895 5.4112 5.60982 5.8054 5.99897 6.19206 6.38673 6.58519 6.78911
6.9989 7.21319 7.42878 7.64102 7.84455 8.03435 8.20697 8.36177 8.50182
8.63369 8.76563 8.90455 9.05333 9.2102 9.37009 9.52685 9.67492 9.81016
9.92996 10.033 10.1191 10.1886 4.96975 4.82895 4.69272 4.56824 4.46316
4.38303 4.32792 4.28931 4.24886 4.18045 4.05815 3.8686 3.61835 3.76163
4.02318 4.2663 4.49646 4.71645 4.92747 5.13023 5.32544 5.51411 5.69768
5.87816 6.05819 6.24094 6.42972 6.62719 6.8345 7.05059 7.27197 7.49303
7.70692 7.90678 8.08739 8.2469 8.38836 8.51975 8.6517 8.79329 8.94823
9.11408 9.28428 9.45126 9.60854 9.75157 9.87767 9.98565 10.0754 10.1477
4.95355 4.81593 4.68169 4.55695 4.44785 4.3581 4.28595 4.22242 4.152
4.05616 3.91895 3.73298 3.50187 3.65916 3.93486 4.19166 4.43186 4.65687
4.86768 5.06537 5.25132 5.42728 5.59549 5.75883 5.92104 6.08664 6.26057
6.44719 6.64911 6.86597 7.09398 7.32628 7.55406 7.76816 7.96115 8.12954
8.27594 8.40936 8.54264 8.687 8.84716 9.02022 9.19849 9.37331 9.53756
9.68646 9.81732 9.92909 10.0219 10.0965 4.9489 4.8156 4.68421 4.55958
4.44636 4.34688 4.25882 4.17428 4.0812 3.96656 3.82016 3.63738 3.41986
3.58759 3.87484 4.14336 4.392 4.62018 4.82829 5.01779 5.19084 5.35001
5.49824 5.63915 5.7775 5.91947 6.07229 6.24307 6.43675 6.65414 6.89093
7.13836 7.38496 7.61883 7.83003 8.01323 8.17012 8.3101 8.44742 8.59501
8.75864 8.93565 9.11803 9.29677 9.46454 9.61649 9.74996 9.86398 9.95868
10.035 4.95607 4.82884 4.70204 4.57914 4.46328 4.35569 4.25408 4.15226
4.0415 3.91299 3.76011 3.57974 3.37217 3.54945 3.84827 4.12826 4.38426
4.61308 4.81459 4.99119 5.14632 5.28347 5.40609 5.51822 5.62545 5.73577
5.85967 6.00844 6.19085 6.4094 6.65863 6.92658 7.19802 7.45779 7.69348
7.898 8.07192 8.22422 8.36938 8.52114 8.68636 8.86345 9.04526 9.22334
9.39065 9.54246 9.67615 9.79069 9.8862 9.96355 4.97424 4.855 4.73475
4.61554 4.49903 4.38545 4.27276 4.1566 4.03132 3.89153 3.73337 3.55491
3.35568 3.54451 3.85845 4.15284 4.41659 4.64292 4.83213 4.98924 5.12005
5.22915 5.32011 5.39669 5.46475 5.53407 5.6194 5.7385 5.90631 6.12778
6.39491 6.69017 6.99288 7.28413 7.54943 7.78051 7.97701 8.14689 8.30377
8.46119 8.62692 8.80109 8.97844 9.15191 9.31527 9.46411 9.59585 9.70937
9.80465 9.88242 5.00187 4.89249 4.7808 4.66737 4.55231 4.43488 4.31327
4.18479 4.04661 3.89651 3.73324 3.55641 3.36553 3.57055 3.90753 4.224
4.49815 4.71753 4.88581 5.01457 5.11364 5.18863 5.24242 5.27752 5.29895
5.31772 5.35374 5.43424 5.58402 5.81158 6.10374 6.43373 6.77325 7.09945
7.39667 7.65651 7.87824 8.06875 8.24011 8.4049 8.57138 8.74157 8.91252
9.07913 9.23635 9.38031 9.50859 9.61996 9.71425 9.79198 5.03702 4.93946
4.83858 4.73334 4.62215 4.50305 4.37415 4.23423 4.0832 3.92204 3.7525
3.57633 3.39421 3.62141 3.99363 4.3463 4.63639 4.84143 4.97637 5.06644
5.12672 5.16286 5.17607 5.16656 5.13717 5.09883 5.07672 5.11058 5.23963
5.47719 5.80122 6.17121 6.54957 6.91014 7.23745 7.52419 7.77007 7.98115
8.16781 8.34124 8.5097 8.67667 8.8414 9.00081 9.15126 9.28962 9.41373
9.5224 9.61529 9.69275 5.07745 4.99396 4.9067 4.81289 4.70879 4.59053
4.4555 4.30366 4.13781 3.96268 3.78353 3.60498 3.42993 3.68208 4.10047
4.50685 4.82067 5.00233 5.09277 5.13775 5.15575 5.15135 5.12419 5.07199
4.99454 4.90114 4.82085 4.80654 4.91461 5.16383 5.52033 5.92771 6.33947
6.72768 7.07835 7.38609 7.65154 7.88019 8.08085 8.26315 8.43484 8.60023
8.76023 8.91351 9.05781 9.19084 9.31085 9.41677 9.50823 9.58542 5.12045
5.05355 4.98354 4.9057 4.81335 4.69938 4.55913 4.39325 4.20818 4.01352
3.8188 3.63159 3.45695 3.72556 4.18207 4.64099 4.98272 5.14816 5.20586
5.21468 5.19395 5.1512 5.08816 5.00159 4.88851 4.75588 4.63409 4.58447
4.67583 4.93076 5.30617 5.73436 6.16358 6.56573 6.92851 7.24821 7.52615
7.76724 7.97882 8.16889 8.34432 8.50961 8.66667 8.81547 8.95488 9.08347
9.19996 9.3035 9.39375 9.47084 5.16233 5.11455 5.06602 5.01011 4.93624
4.83175 4.68736 4.50363 4.2922 4.06985 3.8514 3.64676 3.46121 3.72462
4.18094 4.64769 5.01052 5.20672 5.28392 5.28325 5.23175 5.15535 5.06488
4.95793 4.82983 4.68582 4.55493 4.49726 4.58056 4.82698 5.19388 5.61429
6.03715 6.43497 6.79611 7.11722 7.39948 7.64687 7.86517 8.06079 8.23946
8.40537 8.56086 8.7067 8.84261 8.96784 9.08161 9.18334 9.27278 9.35004
5.19801 5.17094 5.14764 5.12018 5.07336 4.98583 4.83918 4.6323 4.38515
4.12563 3.8752 3.6449 3.43787 3.67476 4.0934 4.52446 4.89923 5.16879
5.31554 5.32766 5.25161 5.14963 5.04475 4.93488 4.81444 4.68788 4.58054
4.54212 4.62641 4.85115 5.18345 5.56877 5.96252 6.33872 6.68524 6.99785
7.27664 7.52421 7.74475 7.94305 8.12363 8.29006 8.44467 8.5886 8.72211
8.84499 8.95684 9.05736 9.14641 9.22415 5.22093 5.21378 5.21663 5.22159
5.20933 5.14695 5.00095 4.76585 4.4744 4.17067 3.88359 3.62387 3.39104
3.59282 3.96356 4.35096 4.72539 5.05293 5.26648 5.30059 5.21848 5.11273
5.01354 4.91918 4.82477 4.73459 4.66885 4.66329 4.75416 4.95366 5.2408
5.57746 5.92893 6.27226 6.595 6.89162 7.16068 7.40327 7.62194 7.81998
8.00072 8.16696 8.32075 8.46329 8.59514 8.7164 8.827 8.92682 9.01588
9.09435 5.22391 5.23195 5.25599 5.28937 5.31044 5.27527 5.13218 4.86902
4.53383 4.18859 3.86849 3.58254 3.32673 3.49528 3.82252 4.16763 4.51722
4.84356 5.07534 5.145 5.10192 5.02934 4.95999 4.89718 4.8398 4.79288
4.77159 4.79951 4.89891 5.07752 5.3233 5.61209 5.91923 6.22604 6.52081
6.79718 7.05245 7.28629 7.49984 7.69507 7.87419 8.03924 8.19185 8.33311
8.46365 8.58376 8.69355 8.79306 8.88241 8.96183 5.20097 5.21542 5.24851
5.29448 5.33109 5.30917 5.16688 4.88785 4.52868 4.16082 3.82204 3.51998
3.24893 3.3904 3.68085 3.985 4.29216 4.57786 4.79388 4.9012 4.92229
4.90668 4.88311 4.86106 4.84444 4.83949 4.85763 4.91399 5.02192 5.18621
5.40027 5.64951 5.91739 6.18979 6.45662 6.71153 6.9511 7.17398 7.3802
7.57066 7.74664 7.9095 8.06039 8.20021 8.32953 8.4487 8.55793 8.65738
8.74721 8.82769 5.14962 5.1597 5.18592 5.22174 5.24515 5.21053 5.06307
4.7893 4.43956 4.0784 3.74143 3.43692 3.16032 3.28195 3.54278 3.81138
4.07789 4.32387 4.5225 4.65489 4.72853 4.76717 4.79061 4.80997 4.83212
4.864 4.91445 4.99345 5.10919 5.26474 5.45659 5.67605 5.91235 6.15532
6.39687 6.63129 6.85498 7.06601 7.26369 7.4481 7.61984 7.77964 7.92828
8.06637 8.19439 8.31268 8.42146 8.52095 8.61135 8.69292 4.22665 4.0863
3.93952 3.78601 3.6254 3.45726 3.28175 3.10144 2.9249 2.7633 2.61406
2.46385 2.30562 2.41786 2.62005 2.8194 3.01537 3.20734 3.39474 3.57713
3.75424 3.92615 4.09324 4.25627 4.41632 4.57468 4.7328 4.89208 5.05381
5.219 5.38832 5.56209 5.74024 5.9224 6.1079 6.2959 6.48537 6.67516
6.86397 7.05037 7.23274 7.40935 7.57835 7.73795 7.8865 8.02276 8.14598
8.25597 8.35307 8.43806 4.30239 4.16144 4.01385 3.8594 3.69778 3.52877
3.35278 3.1725 2.99556 2.83101 2.67658 2.52123 2.35856 2.47314 2.67999
2.884 3.08444 3.28052 3.47149 3.65674 3.83593 4.00906 4.17657 4.33933
4.4986 4.65591 4.81295 4.97139 5.13276 5.29826 5.46874 5.6446 5.82583
6.01206 6.20261 6.39659 6.59289 6.79025 6.98722 7.18213 7.37309 7.55794
7.73435 7.9 8.05284 8.1913 8.3146 8.4227 8.5163 8.59659 4.38089
4.2397 4.09178 3.93704 3.77544 3.60715 3.43306 3.25584 3.08067 2.91244
2.74961 2.58578 2.41638 2.5324 2.74355 2.95212 3.15706 3.35736 3.55202
3.74025 3.92156 4.09591 4.26377 4.42612 4.58442 4.74044 4.89613 5.05346
5.21417 5.37971 5.55108 5.72879 5.91291 6.10311 6.2987 6.49875 6.70212
6.90743 7.1131 7.31724 7.51759 7.71151 7.89608 8.06833 8.22559 8.36599
8.48868 8.59391 8.68286 8.75728 4.46213 4.32097 4.17304 4.01839 3.85725
3.69011 3.51808 3.3433 3.16878 2.99668 2.82613 2.65395 2.4774 2.59467
2.81009 3.02322 3.23277 3.43742 3.63592 3.82725 4.01078 4.18639 4.35458
4.51646 4.67369 4.82828 4.98247 5.13846 5.29829 5.46359 5.63554 5.81481
6.00154 6.19547 6.39592 6.60196 6.81241 7.02584 7.24051 7.45433 7.66466
7.86833 8.06168 8.24091 8.40267 8.54461 8.66591 8.76722 8.85037 8.91785
4.54603 4.4051 4.25729 4.10281 3.94204 3.77563 3.60463 3.43054 3.25505
3.07914 2.90235 2.72316 2.54004 2.65889 2.87877 3.09661 3.31088 3.52001
3.72248 3.91704 4.10289 4.27985 4.44843 4.60989 4.76606 4.91922 5.07184
5.2264 5.38516 5.54998 5.72222 5.90269 6.09165 6.28891 6.49386 6.70556
6.92283 7.14417 7.36777 7.59131 7.81181 8.02549 8.2279 8.41427 8.58038
8.7234 8.84252 8.93897 9.01541 9.07516 4.63256 4.49193 4.34425 4.18981
4.02905 3.86264 3.69148 3.51663 3.3391 3.15942 2.9774 2.79233 2.60334
2.72417 2.94877 3.17146 3.39055 3.60423 3.81076 4.00865 4.19693 4.37534
4.54446 4.70564 4.86092 5.01277 5.16393 5.31707 5.47469 5.63884 5.81106
5.99233 6.18304 6.3831 6.59195 6.8087 7.03215 7.26079 7.49271 7.72542
7.95559 8.1789 8.39004 8.58323 8.75328 8.89683 9.01317 9.10419 9.17349
9.22533 4.72167 4.5814 4.43378 4.27913 4.11793 3.95082 3.77856 3.60197
3.42173 3.23825 3.05151 2.86118 2.6668 2.78991 3.01938 3.24697 3.47086
3.68907 3.89963 4.10087 4.29166 4.4717 4.64157 4.80275 4.95742 5.10827
5.25819 5.41008 5.56658 5.72994 5.90187 6.08351 6.27542 6.47758 6.68954
6.91043 7.13905 7.37385 7.61285 7.85339 8.09189 8.32351 8.54217 8.74115
8.91435 9.05791 9.17124 9.25692 9.31949 9.36404 4.81343 4.67354 4.52587
4.37075 4.20869 4.04028 3.86623 3.68721 3.50382 3.31642 3.12511 2.9298
2.73025 2.85573 3.09006 3.32244 3.55096 3.77352 3.98796 4.19247 4.38582
4.56764 4.73855 4.90011 5.05464 5.20493 5.35402 5.50493 5.66046 5.82298
5.9944 6.176 6.36847 6.57195 6.78602 7.00986 7.24225 7.48157 7.72576
7.97202 8.21654 8.4541 8.67806 8.88099 9.05612 9.19922 9.30985 9.39114
9.44836 9.48724 4.90791 4.76842 4.6206 4.46479 4.30149 4.13132 3.95494
3.77302 3.58611 3.3946 3.1987 2.99843 2.79371 2.92149 3.16052 3.39742
3.63025 3.85679 4.07483 4.28243 4.47831 4.66207 4.83437 4.99679 5.15172
5.30202 5.4508 5.60116 5.75596 5.91771 6.08844 6.26959 6.462 6.6659
6.88095 7.10632 7.34075 7.58255 7.82951 8.07872 8.32616 8.56643 8.7926
8.99694 9.17243 9.31472 9.42349 9.50213 9.55625 9.59187 5.00524 4.8662
4.71815 4.56144 4.39659 4.22426 4.04515 3.85993 3.66919 3.47337 3.27274
3.06741 2.85739 2.98731 3.23076 3.47181 3.70849 3.93855 4.15976 4.37018
4.5685 4.75435 4.92837 5.09217 5.24812 5.39909 5.54817 5.69846 5.85288
6.014 6.18395 6.3643 6.556 6.7594 6.97418 7.19953 7.43408 7.67605
7.92309 8.17213 8.41906 8.65841 8.88333 9.08628 9.26045 9.40169 9.5097
9.58781 9.64149 9.67665 5.1055 4.96701 4.81868 4.66089 4.49422 4.31941
4.13723 3.94841 3.7536 3.55327 3.34775 3.13721 2.92169 3.05357 3.30117
3.54597 3.78599 4.01904 4.24294 4.45582 4.65644 4.84445 5.0205 5.18617
5.34375 5.49604 5.64606 5.79684 5.95128 6.11198 6.28112 6.46036 6.65076
6.85272 7.06598 7.28967 7.52238 7.76219 8.00662 8.25247 8.4956 8.73067
8.95121 9.15024 9.32162 9.46159 9.56987 9.64938 9.70506 9.74234 5.20874
5.07091 4.92227 4.76325 4.59452 4.41695 4.23143 4.03879 3.83975 3.63481
3.42431 3.20843 2.98726 3.121 3.37256 3.62077 3.86369 4.09921 4.3253
4.54024 4.74293 4.93311 5.1114 5.27933 5.43907 5.59328 5.74482 5.89663
6.05151 6.21203 6.38039 6.55829 6.74684 6.94649 7.157 7.37748 7.60646
7.84195 8.08136 8.32144 8.5581 8.78628 9.0001 9.19342 9.36093 9.49944
9.60861 9.69083 9.75025 9.79158 5.31482 5.17782 5.02886 4.86845 4.69744
4.51687 4.32781 4.13125 3.92796 3.71846 3.50305 3.28186 3.05497 3.19062
3.44615 3.69761 3.94309 4.18064 4.40844 4.62503 4.82951 5.02173 5.20235
5.37278 5.53505 5.69162 5.84518 5.99847 6.15418 6.31478 6.48242 6.6588
6.84503 7.04158 7.24822 7.46409 7.68769 7.91701 8.14946 8.38182 8.61016
8.82981 9.03556 9.22217 9.38522 9.52206 9.6323 9.71776 9.78175 9.82817
5.42334 5.28734 5.13804 4.97609 4.80256 4.61879 4.42611 4.22569 4.01836
3.80462 3.58464 3.35841 3.12591 3.26383 3.5236 3.77835 4.02621 4.26543
4.4945 4.71228 4.91817 5.11219 5.29504 5.46803 5.63303 5.79225 5.94814
6.10326 6.2601 6.42099 6.58798 6.7627 6.94622 7.13901 7.34087 7.55095
7.76783 7.98957 8.21366 8.43703 8.656 8.86633 9.06348 9.24305 9.4014
9.53634 9.64745 9.73604 9.80465 9.8564 5.53343 5.3986 5.24892 5.08522
4.90893 4.7218 4.52554 4.32156 4.11077 3.89352 3.66976 3.43917 3.20148
3.34235 3.607 3.86533 4.11552 4.35609 4.58593 4.80436 5.01116 5.20659
5.39141 5.56686 5.73457 5.89652 6.0549 6.212 6.37012 6.53142 6.69779
6.87075 7.05128 7.23983 7.43621 7.63966 7.84888 8.06209 8.27696 8.49066
8.69982 8.90066 9.08924 9.26184 9.41545 9.54825 9.65979 9.75096 9.82367
9.88035 5.64352 5.51 5.35982 5.19409 5.01476 4.82417 4.62458 4.41771
4.20453 3.98516 3.75906 3.52538 3.28338 3.4284 3.69896 3.96137 4.21388
4.45537 4.68532 4.90367 5.11071 5.30701 5.49341 5.67104 5.8413 6.00587
6.16666 6.32571 6.4851 6.64678 6.81249 6.98358 7.16095 7.34496 7.53546
7.73179 7.93283 8.13702 8.34229 8.54612 8.74548 8.93703 9.11732 9.28319
9.43209 9.56246 9.67384 9.76681 9.84276 9.90357 5.75105 5.61886 5.46792
5.29978 5.11709 4.92303 4.72061 4.51202 4.29826 4.07906 3.85309 3.61854
3.37378 3.52481 3.80278 4.06991 4.32454 4.56618 4.79519 5.0124 5.21879
5.41529 5.60281 5.78229 5.95482 6.12174 6.28465 6.44536 6.60575 6.76761
6.9325 7.10162 7.27572 7.4551 7.63962 7.82873 8.02149 8.21659 8.41229
8.60639 8.79623 8.97885 9.15122 9.31058 9.45475 9.58236 9.69291 9.78676
9.86492 9.92882 5.85214 5.72108 5.56897 5.39787 5.21143 5.01397 4.80955
4.60104 4.38951 4.17409 3.95221 3.72043 3.47554 3.63536 3.92278 4.1952
4.45124 4.69152 4.91785 5.13237 5.33695 5.53292 5.72114 5.90219 6.07669
6.24555 6.41005 6.57182 6.73265 6.89423 7.05799 7.22497 7.39579 7.57064
7.74936 7.93146 8.11621 8.30254 8.48903 8.67379 8.85452 9.0286 9.19336
9.34638 9.48573 9.61016 9.71918 9.81297 9.89226 9.95811 5.94144 5.81095
5.65694 5.48216 5.29146 5.09074 4.88547 4.67953 4.47425 4.26799 4.05634
3.83316 3.59249 3.76523 4.06472 4.34254 4.59813 4.83423 5.05505 5.26467
5.46607 5.66092 5.84971 6.03233 6.2086 6.37884 6.54406 6.70588 6.86616
7.02666 7.18877 7.35339 7.52095 7.6915 7.8648 8.04041 8.21771 8.39585
8.57369 8.74965 8.92174 9.08767 9.24509 9.39183 9.52618 9.647 9.75379
9.84659 9.92593 9.99261 6.01222 5.88123 5.72423 5.54473 5.3491 5.14512
4.94023 4.73989 4.54611 4.35656 4.1643 3.95897 3.72962 3.92148 4.23622
4.51836 4.76947 4.99638 5.20733 5.40913 5.60602 5.79968 5.98968 6.1745
6.35261 6.52348 6.68801 6.84819 7.00635 7.16455 7.32422 7.48611 7.65043
7.817 7.98542 8.15521 8.3258 8.49651 8.66639 8.83416 8.99811 9.15626
9.30653 9.44702 9.57618 9.69296 9.79687 9.88786 9.96627 10.0327 6.05716
5.92393 5.76236 5.57675 5.37504 5.16726 4.96345 4.77154 4.59526 4.43217
4.27238 4.09913 3.89273 4.11308 4.44664 4.72945 4.9683 5.17792 5.3729
5.56355 5.75522 5.94891 6.1423 6.3312 6.51167 6.682 6.84345 6.99921
7.15279 7.30689 7.46304 7.62175 7.78283 7.94576 8.10989 8.27458 8.43927
8.60334 8.76602 8.92624 9.08257 9.23331 9.37666 9.51094 9.63477 9.74719
9.8477 9.93618 10.0129 10.0782 6.06979 5.93193 5.76368 5.56997 5.36017
5.14668 4.9428 4.7604 4.60678 4.48113 4.37094 4.25066 4.08586 4.34873
4.70445 4.97958 5.19308 5.37397 5.54582 5.72258 5.90997 6.10741 6.30919
6.50633 6.69037 6.85796 7.012 7.15875 7.3041 7.45171 7.60305 7.75807
7.91595 8.07561 8.23602 8.39633 8.55588 8.71408 8.87027 9.02359 9.17284
9.3166 9.45333 9.58156 9.70008 9.80798 9.90477 9.99027 10.0646 10.1281