# vtk DataFile Version 3.0
vtk output
ASCII
DATASET RECTILINEAR_GRID
FIELD FieldData 2
base_index 1 3 int
0 0 0
avtOriginalBounds 1 6 double
-10 10 -10 10 -10 10
DIMENSIONS 50 50 50
X_COORDINATES 50 float
-10 -9.59184 -9.18367 -8.77551 -8.36735 -7.95918 -7.55102 -7.14286 -6.73469
-6.32653 -5.91837 -5.5102 -5.10204 -4.69388 -4.28571 -3.87755 -3.46939 -3.06122
-2.65306 -2.2449 -1.83673 -1.42857 -1.02041 -0.612245 -0.204082 0.204082 0.612245
1.02041 1.42857 1.83673 2.2449 2.65306 3.06122 3.46939 3.87755 4.28572
4.69388 5.10204 5.5102 5.91837 6.32653 6.73469 7.14286 7.55102 7.95918
8.36735 8.77551 9.18367 9.59184 10
Y_COORDINATES 50 float
-10 -9.59184 -9.18367 -8.77551 -8.36735 -7.95918 -7.55102 -7.14286 -6.73469
-6.32653 -5.91837 -5.5102 -5.10204 -4.69388 -4.28571 -3.87755 -3.46939 -3.06122
-2.65306 -2.2449 -1.83673 -1.42857 -1.02041 -0.612245 -0.204082 0.204082 0.612245
1.02041 1.42857 1.83673 2.2449 2.65306 3.06122 3.46939 3.87755 4.28572
4.69388 5.10204 5.5102 5.91837 6.32653 6.73469 7.14286 7.55102 7.95918
8.36735 8.77551 9.18367 9.59184 10
Z_COORDINATES 50 float
-10 -9.59184 -9.18367 -8.77551 -8.36735 -7.95918 -7.55102 -7.14286 -6.73469
-6.32653 -5.91837 -5.5102 -5.10204 -4.69388 -4.28571 -3.87755 -3.46939 -3.06122
-2.65306 -2.2449 -1.83673 -1.42857 -1.02041 -0.612245 -0.204082 0.204082 0.612245
1.02041 1.42857 1.83673 2.2449 2.65306 3.06122 3.46939 3.87755 4.28572
4.69388 5.10204 5.5102 5.91837 6.32653 6.73469 7.14286 7.55102 7.95918
8.36735 8.77551 9.18367 9.59184 10
CELL_DATA 117649
POINT_DATA 125000
SCALARS temp float
LOOKUP_TABLE default
3.75361 3.6116 3.46396 3.31061 3.15153 2.98688 2.81744 2.64558 2.47587
2.31253 2.22546 2.42755 2.63115 2.83376 3.03415 3.2316 3.42556 3.61548
3.80093 3.98156 4.15724 4.32807 4.49447 4.65712 4.81694 4.97505 5.13266
5.29097 5.45104 5.61376 5.77973 5.94923 6.12228 6.29857 6.47757 6.65853
6.84054 7.02251 7.20322 7.38131 7.55528 7.72351 7.88437 8.03628 8.17783
8.30796 8.42605 8.53192 8.62586 8.70848 3.81909 3.67621 3.5275 3.37292
3.21249 3.04646 2.87568 2.70245 2.5309 2.3646 2.27524 2.48122 2.68888
2.89574 3.10048 3.30223 3.50027 3.69393 3.88261 4.06586 4.24349 4.41558
4.58257 4.74524 4.90466 5.06214 5.2191 5.37692 5.53689 5.70004 5.8671
6.03846 6.21418 6.39397 6.57729 6.76335 6.95115 7.13951 7.32705 7.51222
7.69324 7.86818 8.035 8.19176 8.33673 8.46866 8.58684 8.69124 8.78236
8.86113 3.88684 3.74337 3.59394 3.4386 3.27751 3.11108 2.94028 2.76711
2.59455 2.42477 2.33167 2.54054 2.75132 2.9618 3.17051 3.37638 3.57845
3.77585 3.96781 4.15375 4.33334 4.50666 4.67416 4.83673 4.9956 5.15226
5.30834 5.46544 5.62505 5.78838 5.9563 6.1293 6.30751 6.49067 6.67824
6.8694 7.0631 7.25805 7.45273 7.64538 7.83391 8.01601 8.18921 8.35107
8.4995 8.63297 8.75077 8.85302 8.94056 9.01471 3.9568 3.81296 3.66306
3.50725 3.34581 3.1793 3.00868 2.8355 2.66161 2.48813 2.39126 2.6032
2.81706 3.03102 3.24361 3.45354 3.65965 3.86085 4.05616 4.24482 4.42643
4.60098 4.76898 4.9314 5.08962 5.24534 5.40039 5.5566 5.71564 5.87891
6.04742 6.2218 6.40222 6.58852 6.78013 6.97625 7.17576 7.3773 7.57921
7.7795 7.97579 8.16534 8.34515 8.51225 8.66404 8.79875 8.91565 9.01509
9.09833 9.16717 4.02889 3.88482 3.73456 3.57834 3.41653 3.24973 3.07879
2.90482 2.72893 2.5517 2.45158 2.66728 2.8847 3.10241 3.31899 3.53306
3.74327 3.94832 4.14704 4.33851 4.52217 4.69801 4.86654 5.02883 5.18642
5.34117 5.49514 5.65034 5.80865 5.97164 6.14048 6.31591 6.49821 6.68726
6.88256 7.08327 7.28827 7.49612 7.70503 7.91282 8.11678 8.31372 8.50009
8.6723 8.82724 8.96282 9.07832 9.1744 9.25282 9.31591 4.10302 3.95879
3.80819 3.65147 3.48906 3.32151 3.14957 2.97402 2.79559 2.61462 2.51171
2.73177 2.9533 3.17512 3.3959 3.61421 3.82858 4.03753 4.2397 4.43401
4.6198 4.797 4.96616 5.12842 5.28548 5.43935 5.59228 5.74646 5.90395
6.06648 6.23538 6.41151 6.59526 6.78658 6.98502 7.18975 7.39963 7.61315
7.82844 8.0431 8.25414 8.45795 8.6504 8.82728 8.98494 9.12097 9.23469
9.32712 9.40054 9.45787 4.17911 4.03477 3.88376 3.72638 3.56305 3.39431
3.22077 3.04305 2.86169 2.67697 2.57153 2.79632 3.02235 3.24857 3.47371
3.69633 3.91486 4.12767 4.33327 4.53043 4.71841 4.89709 5.06702 5.22945
5.38618 5.53937 5.69141 5.84466 6.00131 6.16326 6.33196 6.50841 6.69312
6.8861 7.08696 7.2949 7.50874 7.72694 7.9475 8.16789 8.38485 8.59438
8.79186 8.97253 9.13223 9.26828 9.38007 9.46896 9.53772 9.5898 4.25712
4.11267 3.96118 3.80296 3.63842 3.46808 3.29248 3.11217 2.92761 2.73907
2.63121 2.86092 3.09165 3.32242 3.55198 3.77888 4.00146 4.21803 4.42696
4.62693 4.81712 4.99737 5.16829 5.33116 5.48786 5.64068 5.79209 5.94458
6.10047 6.26176 6.43004 6.60643 6.79154 6.98548 7.1879 7.398 7.6146
7.8361 8.06041 8.28483 8.50593 8.71942 8.92031 9.10341 9.26423 9.39992
9.50989 9.5958 9.66082 9.70875 4.33701 4.19247 4.04042 3.88119 3.71519
3.54292 3.36493 3.18172 2.99373 2.80128 2.69102 2.92574 3.16125 3.39658
3.63051 3.86154 4.08799 4.3081 4.52016 4.72282 4.9152 5.09715 5.26927
5.4329 5.58996 5.74279 5.89393 6.04593 6.2012 6.36182 6.52949 6.70544
6.89038 7.0845 7.28748 7.49855 7.71648 7.9396 8.16574 8.3921 8.61509
8.83026 9.03244 9.21629 9.37714 9.51209 9.62064 9.70455 9.76719 9.81254
4.41874 4.27414 4.12149 3.9611 3.79343 3.61899 3.43833 3.25199 3.06042
2.86397 2.75127 2.99102 3.23134 3.47121 3.70939 3.94434 4.17439 4.39772
4.61266 4.81781 5.01232 5.19605 5.3696 5.53433 5.69215 5.84543 5.9967
6.14855 6.30339 6.46338 6.63031 6.80547 6.98966 7.18314 7.38562 7.59634
7.81401 8.03693 8.26281 8.48878 8.71118 8.92554 9.12672 9.30945 9.46919
9.60312 9.71074 9.79384 9.8557 9.90025 4.50224 4.35764 4.20434 4.04269
3.87317 3.69636 3.51286 3.32323 3.12797 2.92744 2.81228 3.05716 3.30233
3.54671 3.78901 4.02768 4.26101 4.48724 4.70472 4.91212 5.10865 5.29418
5.46935 5.63548 5.79447 5.94863 6.10045 6.25248 6.40714 6.56659 6.73266
6.90671 7.08959 7.28162 7.48253 7.69155 7.90737 8.12821 8.35175 8.57505
8.79447 9.00566 9.20369 9.3836 9.54118 9.6738 9.78101 9.86438 9.92696
9.9724 4.58732 4.44279 4.28884 4.12584 3.95435 3.77504 3.58857 3.39558
3.19659 2.99199 2.87443 3.12462 3.37479 3.62377 3.87016 4.11237 4.34872
4.5775 4.79718 5.00654 5.20489 5.39219 5.56908 5.73685 5.89734 6.05276
6.20551 6.35806 6.51277 6.67178 6.83692 7.00957 7.19063 7.38042 7.57873
7.78476 7.99721 8.21425 8.43355 8.65217 8.86658 9.07264 9.2658 9.44155
9.59613 9.7272 9.8343 9.91874 9.98316 10.0308 4.67364 4.52929 4.37468
4.21026 4.03671 3.85481 3.66535 3.46903 3.26642 3.05789 2.93811 3.194
3.44953 3.70336 3.95397 4.19969 4.43886 4.66989 4.8914 5.10239 5.30231
5.49123 5.66984 5.83937 6.00158 6.15853 6.3125 6.46583 6.62079 6.77945
6.94359 7.1146 7.29336 7.48023 7.675 7.8769 8.08463 8.29638 8.50986
8.72223 8.93011 9.12965 9.31675 9.48745 9.63845 9.76773 9.8748 9.9607
10.0276 10.0782 4.7606 4.61652 4.46125 4.29537 4.11968 3.93518 3.7428
3.54335 3.33741 3.12531 3.00372 3.26597 3.52752 3.78677 4.04196 4.29133
4.53323 4.76623 4.98919 5.20139 5.40252 5.59282 5.77301 5.94429 6.10829
6.26691 6.42227 6.57655 6.73187 6.89022 7.05329 7.22243 7.3985 7.58185
7.77229 7.96909 8.17101 8.37632 8.58282 8.78781 8.98815 9.18034 9.36073
9.52587 9.67294 9.80018 9.9071 9.99444 10.0639 10.1178 4.84719 4.70347
4.54754 4.38012 4.20226 4.01521 3.82014 3.61797 3.40929 3.19429 3.07163
3.34132 3.60998 3.87558 4.13603 4.38938 4.63399 4.86867 5.09263 5.30552
5.50739 5.69868 5.88018 6.05306 6.21877 6.37906 6.53581 6.69105 6.84673
7.00472 7.16661 7.33367 7.50671 7.68608 7.87159 8.06259 8.25791 8.45597
8.65471 8.85165 9.04392 9.22836 9.40176 9.56114 9.70407 9.82902 9.93548
10.024 10.0958 10.1527 4.93192 4.78859 4.63192 4.46286 4.2828 4.09335
3.89599 3.69183 3.48138 3.26465 3.14215 3.42093 3.69837 3.97179 4.23853
4.49636 4.74367 4.97961 5.20392 5.4168 5.61877 5.81053 5.99297 6.16717
6.33441 6.49618 6.65417 6.81019 6.96607 7.12353 7.28405 7.44882 7.61857
7.79363 7.97383 8.15857 8.34683 8.53718 8.72776 8.91635 9.10036 9.27697
9.44337 9.59694 9.73559 9.85797 9.96357 10.0527 10.1263 10.1858 5.01257
4.86955 4.712 4.54114 4.35884 4.16723 3.96824 3.76316 3.55248 3.33581
3.21543 3.50574 3.79447 4.07786 4.35236 4.61527 4.86511 5.10157 5.32523
5.53711 5.73833 5.92995 6.11291 6.28811 6.45659 6.61953 6.7784 6.93483
7.09052 7.24709 7.40596 7.56818 7.73444 7.905 8.0797 8.25802 8.43906
8.62156 8.80392 8.98414 9.15994 9.32884 9.48832 9.63611 9.77037 9.88988
9.99413 10.0832 10.158 10.2193 5.08616 4.94321 4.78445 4.61152 4.42692
4.23346 4.03369 3.82926 3.62056 3.40667 3.29134 3.59674 3.90041 4.19686
4.48106 4.74963 5.00138 5.23702 5.45847 5.66793 5.86737 6.05821 6.24132
6.4173 6.58671 6.7504 6.90955 7.0657 7.22053 7.37564 7.53239 7.69177
7.85437 8.02036 8.18958 8.36155 8.53548 8.71029 8.88459 9.05666 9.22448
9.38585 9.53857 9.68062 9.81036 9.92668 10.029 10.1175 10.1925 10.255
5.14892 5.00552 4.84502 4.66957 4.48246 4.28746 4.08794 3.88613 3.68241
3.47515 3.36919 3.69478 4.01873 4.3326 4.62896 4.90345 5.1556 5.38804
5.60484 5.80999 6.00652 6.19613 6.37937 6.55615 6.72632 6.89016 7.04869
7.20348 7.35637 7.50911 7.66309 7.81922 7.97798 8.13945 8.30336 8.46925
8.6364 8.80389 8.9705 9.13477 9.29493 9.44904 9.59517 9.7315 9.85658
9.96938 10.0694 10.1565 10.2311 10.2938 5.19653 5.05179 4.88871 4.71
4.51991 4.32341 4.1251 3.92811 3.73309 3.53763 3.44711 3.80011 4.15201
4.48945 4.80093 5.08079 5.33031 5.55559 5.76424 5.96277 6.15542 6.34394
6.52803 6.70628 6.87726 7.0405 7.19696 7.34866 7.49796 7.64699 7.79727
7.94965 8.10441 8.26144 8.42034 8.58056 8.74143 8.90209 9.06152 9.21844
9.37132 9.51848 9.65819 9.78886 9.90917 10.0182 10.1153 10.2005 10.274
10.3361 5.22464 5.07728 4.91038 4.72723 4.53316 4.33459 4.1378 3.94747
3.76514 3.58787 3.5209 3.91107 4.30174 4.67126 5.00123 5.28439 5.52591
5.73815 5.93413 6.12368 6.31224 6.50112 6.68827 6.86982 7.04208 7.20357
7.3556 7.50143 7.64466 7.78812 7.93352 8.08152 8.23212 8.38486 8.53911
8.69417 8.84932 9.00375 9.15657 9.30666 9.45271 9.59326 9.7268 9.85192
9.96741 10.0724 10.1664 10.2492 10.3209 10.3819 5.22977 5.07811 4.90572
4.71639 4.51643 4.3139 4.11736 3.93404 3.76756 3.61532 3.58179 4.02127
4.46516 4.87804 5.23 5.51217 5.73771 5.92945 6.10805 6.28713 6.4731
6.6661 6.86109 7.04979 7.22445 7.38209 7.52564 7.66124 7.79484 7.93033
8.06947 8.21251 8.35885 8.50754 8.65758 8.80802 8.95805 9.10688 9.25368
9.39751 9.53724 9.6716 9.79929 9.91906 10.0298 10.1308 10.2214 10.3015
10.371 10.4303 5.21027 5.05243 4.87258 4.67464 4.46563 4.25517 4.05463
3.87527 3.72495 3.60325 3.61327 4.11457 4.62825 5.09773 5.47491 5.75015
5.95095 6.11567 6.27418 6.44371 6.63128 6.83556 7.04717 7.25015 7.42905
7.57878 7.70684 7.82566 7.94505 8.06994 8.20162 8.33935 8.48157 8.6266
8.77293 8.91934 9.06486 9.20871 9.35012 9.48829 9.62226 9.75096 9.87326
9.98806 10.0944 10.1914 10.2787 10.3559 10.4231 10.4803 5.16714 5.00141
4.81209 4.60272 4.3802 4.15509 3.94178 3.75738 3.61756 3.52773 3.58872
4.1595 4.75571 5.29275 5.6982 5.9635 6.13655 6.27426 6.41536 6.58008
6.77637 7.00247 7.24428 7.47333 7.65895 7.7931 7.89472 7.98836 8.08889
8.20128 8.32511 8.45783 8.59651 8.73853 8.88181 9.0248 9.16644 9.30592
9.44258 9.57574 9.70461 9.82831 9.94583 10.0562 10.1585 10.2521 10.3362
10.4107 10.4754 10.5305 5.10425 4.92957 4.72944 4.50613 4.26512 4.01632
3.77614 3.56918 3.42468 3.36104 3.47543 4.1128 4.79049 5.39534 5.83292
6.0972 6.25498 6.37825 6.51247 6.6807 6.89348 7.1517 7.43897 7.70935
7.90421 8.01144 8.07425 8.13615 8.21609 8.31656 8.43387 8.56299 8.69935
8.83936 8.9804 9.12068 9.25907 9.39482 9.52739 9.65626 9.78081 9.9003
10.0139 10.1206 10.2196 10.3102 10.3918 10.4639 10.5264 10.5793 5.02774
4.84435 4.63358 4.39562 4.13287 3.85182 3.56764 3.31186 3.13537 3.08449
3.25283 3.94697 4.68938 5.34702 5.82013 6.10579 6.27629 6.40842 6.55138
6.73171 6.9643 7.25553 7.59125 7.90919 8.11409 8.18968 8.21335 8.24813
8.31323 8.40676 8.52133 8.64958 8.78556 8.92494 9.06474 9.2031 9.33891
9.4716 9.60081 9.72619 9.84731 9.96356 10.0742 10.1782 10.2749 10.3634
10.443 10.5134 10.5741 10.6253 4.94489 4.75467 4.53585 4.28617 4.00381
3.68896 3.35011 3.02013 2.77731 2.72094 2.94876 3.69644 4.48376 5.17035
5.67383 5.99716 6.20431 6.36558 6.52988 6.72646 6.97363 7.28134 7.63802
7.97699 8.18911 8.25695 8.27165 8.3025 8.36789 8.4639 8.58163 8.71278
8.85085 8.99124 9.13095 9.26823 9.4022 9.53254 9.65915 9.78195 9.90066
10.0148 10.1237 10.2263 10.3218 10.4093 10.488 10.5572 10.6168 10.6667
4.86258 4.66909 4.44748 4.19376 3.90255 3.56763 3.18795 2.7896 2.47128
2.39849 2.68555 3.4805 4.2863 4.96973 5.48031 5.83169 6.07599 6.27053
6.45884 6.66935 6.92006 7.21927 7.5545 7.87021 8.08471 8.18378 8.23349
8.29076 8.37456 8.48367 8.61095 8.74896 8.89166 9.03475 9.17554 9.31262
9.44548 9.5742 9.69905 9.82023 9.93771 10.0511 10.1596 10.2623 10.358
10.4458 10.5246 10.5938 10.653 10.7021 4.78609 4.59382 4.37645 4.13
3.84851 3.52407 3.15212 2.75396 2.42937 2.36069 2.6637 3.45233 4.2167
4.84702 5.32453 5.67315 5.93441 6.15083 6.35631 6.57426 6.81899 7.09488
7.38966 7.66663 7.88046 8.02176 8.12412 8.22359 8.33701 8.46656 8.60812
8.75611 8.90555 9.05282 9.19575 9.33343 9.46588 9.59367 9.71758 9.83819
9.95569 10.0698 10.1796 10.2839 10.3815 10.4709 10.5512 10.6214 10.6812
10.7302 4.71827 4.53155 4.32521 4.09731 3.84496 3.56505 3.25976 2.95459
2.73066 2.70534 2.95938 3.66356 4.31177 4.83442 5.23825 5.55172 5.80546
6.02722 6.23939 6.458 6.6924 6.94409 7.20379 7.4508 7.66306 7.83507
7.98118 8.12048 8.26458 8.41655 8.57432 8.73391 8.89143 9.04394 9.18984
9.32875 9.46132 9.58876 9.71246 9.83352 9.95239 10.0688 10.1816 10.2895
10.3907 10.4835 10.5666 10.639 10.7002 10.75 4.65966 4.48142 4.29047
4.08806 3.87624 3.65936 3.44879 3.27244 3.17976 3.2049 3.39306 3.991
4.49442 4.88704 5.19996 5.4623 5.69372 5.90887 6.11945 6.33413 6.55778
6.79039 7.02609 7.2542 7.46445 7.65392 7.82847 7.99722 8.16668 8.33883
8.51215 8.68349 8.84957 9.00791 9.15729 9.29784 9.43081 9.55822 9.68227
9.8047 9.9263 10.0467 10.1646 10.278 10.3846 10.4824 10.5697 10.6455
10.7091 10.7605 4.60925 4.44035 4.26553 4.08907 3.91723 3.7595 3.63099
3.55362 3.54663 3.5925 3.72443 4.24023 4.63146 4.9229 5.16345 5.38214
5.59119 5.79641 6.00192 6.21093 6.42512 6.6438 6.86364 7.07946 7.28677
7.48437 7.67485 7.86239 8.04997 8.23802 8.42471 8.60693 8.78147 8.94588
9.09902 9.2413 9.37465 9.50203 9.62669 9.75125 9.87688 10.0031 10.128
10.2489 10.3629 10.4673 10.5603 10.6405 10.7074 10.7609 4.56561 4.40504
4.24384 4.08831 3.94681 3.83 3.7505 3.7196 3.73528 3.76012 3.83776
4.29783 4.63532 4.88379 5.09301 5.29129 5.48868 5.68767 5.8889 6.09269
6.29905 6.50721 6.71549 6.92178 7.12457 7.32392 7.52143 7.71913 7.91807
8.11749 8.31491 8.50681 8.68954 8.86019 9.01728 9.16128 9.29472 9.42171
9.54693 9.67413 9.80501 9.93878 10.0727 10.203 10.326 10.4385 10.5382
10.6238 10.6946 10.7508 4.52794 4.3736 4.22183 4.0797 3.95575 3.85902
3.79684 3.77038 3.76603 3.74552 3.77267 4.19346 4.51859 4.76959 4.9834
5.1845 5.3832 5.58229 5.78195 5.98185 6.18161 6.38083 6.57906 6.77602
6.97203 7.1682 7.36619 7.56742 7.77216 7.97901 8.18488 8.38557 8.57657
8.75401 8.9156 9.0615 9.19473 9.32082 9.44628 9.57641 9.71351 9.85631
10.0009 10.1422 10.2755 10.397 10.5041 10.5954 10.6706 10.7299 4.49656
4.34637 4.19994 4.06418 3.94675 3.85418 3.78893 3.74557 3.70674 3.64154
3.6307 4.02228 4.34885 4.61874 4.85335 5.07033 5.27909 5.48324 5.68371
5.88063 6.07407 6.2643 6.45192 6.63799 6.82416 7.01263 7.20572 7.40516
7.6113 7.82258 8.03547 8.24491 8.44515 8.63084 8.79836 8.94709 9.08041
9.20538 9.33078 9.46394 9.60785 9.76056 9.91668 10.0697 10.2136 10.3443
10.4588 10.556 10.6356 10.698 4.47277 4.32551 4.18174 4.04767 3.92976
3.83234 3.75476 3.68881 3.61797 3.51967 3.48441 3.85428 4.18281 4.47055
4.72723 4.96312 5.18498 5.39617 5.59816 5.79176 5.9778 6.15742 6.3322
6.50431 6.67663 6.85256 7.0356 7.22855 7.43252 7.64624 7.86585 8.08522
8.29698 8.4938 8.67015 8.82418 8.95923 9.08389 9.20951 9.34569 9.49631
9.6587 9.82586 9.98976 10.1436 10.2825 10.4038 10.5062 10.5897 10.6551
4.4582 4.31384 4.17191 4.03767 3.91628 3.81055 3.71835 3.63128 3.53549
3.41502 3.36489 3.71915 4.04816 4.34877 4.62346 4.87629 5.11048 5.328
5.53023 5.71854 5.8946 6.06046 6.21862 6.37227 6.52548 6.68313 6.8505
7.03222 7.23091 7.44602 7.67332 7.90529 8.13241 8.34489 8.53482 8.69861
8.83916 8.9662 9.09341 9.23272 9.38905 9.55924 9.73507 9.90737 10.0686
10.2138 10.3402 10.4467 10.5334 10.6013 4.45401 4.31355 4.17415 4.04
3.91497 3.80073 3.69481 3.58988 3.4752 3.33959 3.28007 3.6239 3.95336
4.26371 4.55294 4.8201 5.06453 5.28603 5.48547 5.66482 5.82672 5.97418
6.11054 6.23984 6.36729 6.49958 6.64449 6.80957 6.99997 7.2163 7.45369
7.70252 7.95037 8.18447 8.39425 8.57416 8.72615 8.86037 8.99206 9.13495
9.29511 9.46961 9.64991 9.82647 9.99155 10.1401 10.2693 10.3782 10.467
10.5368 4.46046 4.32541 4.19004 4.05733 3.92986 3.80844 3.6907 3.57094
3.4414 3.29449 3.22851 3.56648 3.89823 4.21839 4.52171 4.80255 5.0556
5.2779 5.46991 5.63479 5.77674 5.89987 6.00813 6.10603 6.19971 6.29788
6.41183 6.55365 6.73255 6.95089 7.20242 7.474 7.74912 8.01147 8.24786
8.45086 8.62126 8.7688 8.90899 9.05644 9.2184 9.39309 9.5729 9.74885
9.91354 10.062 10.1915 10.3011 10.3908 10.4617 4.47681 4.34884 4.21919
4.08958 3.96134 3.83446 3.70691 3.57468 3.43273 3.27642 3.20555 3.54175
3.87917 4.21251 4.53368 4.83114 5.09288 5.31205 5.48984 5.63259 5.74726
5.83922 5.91257 5.97156 6.0226 6.07641 6.14892 6.25921 6.42311 6.64547
6.91716 7.21891 7.52827 7.82492 8.09343 8.32515 8.51989 8.68635 8.83915
8.99273 9.15532 9.32701 9.50218 9.67335 9.83396 9.97938 10.1069 10.2155
10.3051 10.3765 4.50168 4.38242 4.26022 4.13551 4.00825 3.87768 3.74205
3.59892 3.44575 3.28061 3.20544 3.54324 3.89055 4.24346 4.59135 4.91392
5.18692 5.39741 5.55082 5.66118 5.74006 5.79397 5.82623 5.8397 5.83989
5.83885 5.85822 5.92735 6.07262 6.30256 6.60221 6.9422 7.29182 7.62653
7.92967 8.19246 8.4144 8.60303 8.77138 8.9329 9.09638 9.26393 9.43242
9.59642 9.75064 9.89102 10.015 10.1214 10.2101 10.2816 4.53332 4.4245
4.31171 4.19396 4.06975 3.93728 3.79487 3.64144 3.47691 3.30211 3.22197
3.56308 3.9237 4.3039 4.69252 5.05619 5.34633 5.53916 5.65371 5.71975
5.75474 5.76519 5.7525 5.71691 5.66159 5.59851 5.5551 5.57432 5.69809
5.93992 6.27498 6.65894 7.05102 7.42317 7.75897 8.05088 8.29887 8.50963
8.69442 8.86524 9.03092 9.19515 9.35715 9.51365 9.66082 9.79539 9.91511
10.0188 10.1061 10.1774 4.56971 4.47331 4.37241 4.26444 4.14603 4.01377
3.86545 3.70115 3.5234 3.33632 3.24862 3.59163 3.965 4.37601 4.81805
5.24297 5.55884 5.72326 5.78595 5.80025 5.78733 5.75235 5.69484 5.61227
5.5044 5.38145 5.27512 5.24269 5.34464 5.60008 5.97116 6.39619 6.82484
7.22716 7.5884 7.90312 8.17227 8.40198 8.60185 8.78225 8.95148 9.11414
9.27124 9.42138 9.56216 9.69123 9.80675 9.90765 9.99354 10.0647 4.6084
4.52669 4.44089 4.34668 4.2381 4.10895 3.95535 3.7782 3.58333 3.37912
3.2789 3.61814 3.99624 4.42769 4.91393 5.39902 5.7457 5.8901 5.91443
5.8871 5.8302 5.75217 5.65479 5.53436 5.38755 5.22196 5.07077 5.00047
5.08497 5.34733 5.73951 6.18756 6.63548 7.05319 7.42777 7.75558 8.03834
8.28156 8.49324 8.68207 8.85541 9.01811 9.17222 9.31774 9.45351 9.57801
9.68995 9.78847 9.87322 9.94438 4.64609 4.58133 4.51439 4.43919 4.3463
4.22469 4.0666 3.87312 3.65487 3.42655 3.3069 3.63326 4.00115 4.42657
4.91261 5.40682 5.77775 5.9571 6.00312 5.96451 5.87264 5.75681 5.62892
5.48606 5.32288 5.14503 4.98414 4.90534 4.98135 5.23478 5.61804 6.058
6.49937 6.91272 7.28583 7.61543 7.90306 8.15322 8.37227 8.56717 8.74413
8.90764 9.06025 9.20278 9.33498 9.45609 9.56531 9.66204 9.74607 9.81754
4.67821 4.63185 4.58712 4.53672 4.46704 4.35941 4.19832 3.98378 3.73402
3.47352 3.32733 3.6314 3.97417 4.36732 4.80975 5.26345 5.64942 5.9137
6.03905 6.01465 5.89493 5.75042 5.60655 5.46055 5.30592 5.14729 5.01217
4.95428 5.03122 5.26099 5.60677 6.00889 6.41902 6.80932 7.16697 7.4877
7.77185 8.02244 8.24409 8.44203 8.6212 8.78544 8.93727 9.07795 9.20777
9.32655 9.43389 9.5295 9.61326 9.68536 4.69884 4.67021 4.6486 4.62658
4.58675 4.50028 4.33866 4.09863 3.81002 3.51144 3.33453 3.61044 3.92004
4.26992 4.65718 5.06161 5.44897 5.78114 5.9833 5.98409 5.85775 5.70921
5.57187 5.44318 5.31729 5.19858 5.1088 5.08644 5.17015 5.37216 5.6688
6.01825 6.38286 6.73793 7.07023 7.37403 7.64801 7.89348 8.11335 8.31124
8.49076 8.65499 8.80613 8.9455 9.07373 9.19096 9.29713 9.39215 9.47606
9.54907 4.70152 4.68649 4.68367 4.68663 4.67578 4.61248 4.45251 4.18736
3.86062 3.52652 3.32157 3.56927 3.8457 4.15401 4.49146 4.84835 5.20892
5.5416 5.76615 5.80843 5.7269 5.6161 5.51236 5.41884 5.33386 5.26258
5.22122 5.23502 5.32757 5.50649 5.75803 6.05563 6.37242 6.68828 6.99069
7.27298 7.53241 7.76876 7.98339 8.17848 8.35648 8.51964 8.66971 8.80791
8.93493 9.0511 9.15657 9.25142 9.33579 9.40992 4.68088 4.67168 4.677
4.69116 4.69396 4.64212 4.48262 4.20355 3.85624 3.50315 3.28168 3.50694
3.75576 4.02937 4.325 4.63588 4.9494 5.23761 5.44638 5.5332 5.52527
5.47913 5.42691 5.37887 5.33897 5.31376 5.31537 5.35989 5.46134 5.62435
5.84129 6.09601 6.37044 6.64934 6.92187 7.18134 7.42417 7.64901 7.85603
8.04625 8.22112 8.38214 8.53058 8.66743 8.79333 8.90869 9.01374 9.10867
9.19368 9.26907 4.63466 4.62177 4.62123 4.6267 4.61829 4.55587 4.39256
4.1188 3.78036 3.43375 3.21247 3.42419 3.65333 3.90047 4.16276 4.43391
4.70231 4.94701 5.13807 5.25513 5.30778 5.32334 5.32411 5.32233 5.3254
5.34067 5.37755 5.44656 5.55624 5.70952 5.90221 6.12464 6.36501 6.6123
6.85782 7.09548 7.3215 7.5339 7.732 7.916 8.08655 8.24452 8.39076
8.52596 8.65067 8.76526 8.87 8.96513 9.05088 9.12756 3.80399 3.66028
3.51055 3.35458 3.19212 3.02289 2.84714 2.66724 2.49059 2.32652 2.24448
2.45472 2.6653 2.87353 3.07855 3.27991 3.47709 3.66957 3.8568 4.03839
4.21414 4.3842 4.54908 4.70966 4.86715 5.023 5.17877 5.33599 5.49602
5.65991 5.82837 6.00168 6.17973 6.36209 6.54803 6.73661 6.92674 7.11717
7.30652 7.49327 7.67574 7.8521 8.02043 8.17883 8.32564 8.45956 8.57984
8.68633 8.77943 8.85997 3.87215 3.72758 3.57679 3.41961 3.25585 3.08542
2.90876 2.72835 2.55077 2.38353 2.29817 2.51189 2.72649 2.93923 3.14899
3.35506 3.55675 3.75331 3.944 4.12827 4.30583 4.47678 4.64169 4.80157
4.95783 5.11219 5.26647 5.4225 5.58187 5.74588 5.91536 6.0907 6.27187
6.45841 6.64957 6.84435 7.04157 7.23987 7.43771 7.63332 7.82469 8.00957
8.18552 8.35012 8.50123 8.63727 8.75744 8.86176 8.95099 9.02641 3.9428
3.79769 3.64623 3.4884 3.32423 3.15394 2.97841 2.80002 2.62324 2.45209
2.36087 2.5762 2.79334 3.00966 3.22367 3.4343 3.64049 3.84122 4.03549
4.22255 4.40195 4.57377 4.7386 4.8976 5.05241 5.205 5.3575 5.51201
5.67041 5.83421 6.00441 6.18155 6.36562 6.55622 6.75258 6.95367 7.15824
7.36482 7.57171 7.77691 7.97804 8.17232 8.35669 8.52803 8.68361 8.82148
8.94079 9.04189 9.12605 9.19514 4.01591 3.87049 3.71864 3.56048 3.39626
3.22648 3.05218 2.87524 2.69826 2.52301 2.42657 2.64412 2.86387 3.08367
3.30186 3.51702 3.72779 3.93281 4.13081 4.32077 4.5021 4.6748 4.83952
4.99756 5.15079 5.30145 5.45197 5.60473 5.76189 5.92517 6.09578 6.27436
6.46104 6.65543 6.8568 7.0641 7.27604 7.49106 7.70734 7.92261 8.13412
8.33851 8.53194 8.71045 8.87054 9.00982 9.12746 9.22423 9.30211 9.36374
4.09143 3.94584 3.79372 3.63528 3.47092 3.30126 3.12726 2.95027 2.77173
2.59243 2.49202 2.71308 2.93629 3.15999 3.38255 3.60239 3.81786 4.0273
4.22915 4.42214 4.6055 4.77916 4.94382 5.10094 5.25259 5.4013 5.54976
5.70065 5.85637 6.01886 6.18954 6.36919 6.55805 6.75582 6.9618 7.17495
7.39396 7.61723 7.8428 8.0682 8.29028 8.50506 8.70786 8.89369 9.05815
9.19834 9.31348 9.40494 9.47557 9.52892 4.1693 4.02362 3.87121 3.71236
3.54753 3.37733 3.20261 3.0243 2.8433 2.66003 2.55646 2.78198 3.00946
3.23757 3.4648 3.68946 3.90972 4.12366 4.32944 4.52555 4.71105 4.8858
5.05055 5.2069 5.35714 5.50402 5.65053 5.79955 5.95373 6.11522 6.28563
6.46592 6.65643 6.85699 7.06696 7.28531 7.51073 7.74157 7.97579 8.21073
8.44287 8.66764 8.87945 9.07227 9.24068 9.38121 9.49322 9.57877 9.64172
9.68659 4.24951 4.10377 3.95099 3.79151 3.62579 3.45443 3.27815 3.09769
2.91366 2.7264 2.62009 2.85058 3.08283 3.3157 3.54777 3.7773 4.00233
4.22073 4.43042 4.62966 4.81739 4.99339 5.15847 5.31434 5.46349 5.60888
5.75368 5.901 6.05366 6.21402 6.38386 6.56431 6.75588 6.95849 7.17158
7.39416 7.6249 7.86212 8.10368 8.34675 8.58752 8.82089 9.04047 9.2392
9.41072 9.55106 9.65971 9.73946 9.79517 9.83225 4.33209 4.1863 4.03305
3.87269 3.7057 3.53266 3.35421 3.171 2.98356 2.79221 2.68329 2.91895
3.15617 3.39392 3.63082 3.8651 4.09471 4.31735 4.53077 4.73308 4.92308
5.10053 5.26625 5.42208 5.57063 5.71501 5.85853 6.00445 6.15575 6.31493
6.48394 6.6641 6.85606 7.05986 7.27502 7.50055 7.73512 7.97697 8.22386
8.47283 8.7198 8.95928 9.18428 9.387 9.56038 9.70006 9.8057 9.88068
9.93062 9.9616 4.41712 4.27129 4.11747 3.95601 3.78741 3.61225 3.43118
3.24479 3.05362 2.85803 2.74647 2.98733 3.22953 3.47208 3.7136 3.95233
4.18613 4.41262 4.62946 4.83464 5.0269 5.20598 5.37274 5.52906 5.67762
5.82162 5.96444 6.10941 6.2596 6.41766 6.58566 6.76509 6.95675 7.16079
7.37678 7.60377 7.84033 8.08463 8.33431 8.58623 8.83614 9.07832 9.3055
9.50956 9.68316 9.82186 9.92539 9.99746 10.044 10.0715 4.50471 4.35888
4.2044 4.04165 3.87115 3.69352 3.50944 3.31954 3.12437 2.92436 2.81004
3.05605 3.30314 3.5503 3.79614 4.03888 4.27635 4.50616 4.72595 4.9337
5.12814 5.30902 5.47721 5.63459 5.78386 5.9282 6.07098 6.21555 6.36501
6.52208 6.68897 6.86728 7.05795 7.26123 7.47674 7.70349 7.94001 8.18433
8.43392 8.68551 8.93473 9.1758 9.40153 9.60399 9.77609 9.91356 10.0162
10.0876 10.1336 10.1605 4.59495 4.44917 4.29398 4.12976 3.95711 3.77672
3.58932 3.39563 3.19625 2.99163 2.87445 3.12559 3.37748 3.62905 3.87888
4.12515 4.36572 4.59826 4.82045 5.03038 5.22685 5.40963 5.5796 5.73861
5.88926 6.03465 6.17809 6.32285 6.47202 6.62834 6.79407 6.97093 7.15996
7.36148 7.57515 7.79995 8.03432 8.27617 8.52283 8.7709 9.01596 9.25238
9.47336 9.67159 9.84066 9.97672 10.0796 10.1524 10.2004 10.2295 4.68786
4.54224 4.38629 4.22046 4.04542 3.862 3.67105 3.47336 3.26961 3.06028
2.94019 3.19655 3.45328 3.70918 3.96276 4.21217 4.45532 4.68998 4.91402
5.12569 5.32394 5.50864 5.68063 5.8417 5.99431 6.14142 6.28616 6.43169
6.58102 6.73684 6.90145 7.0766 7.2634 7.46221 7.67272 7.8939 8.12413
8.36121 8.60239 8.84419 9.08228 9.31132 9.52511 9.71723 9.88217 10.0166
10.1204 10.196 10.2479 10.2812 4.78334 4.638 4.48127 4.31367 4.13604
3.94936 3.75467 3.55288 3.34472 3.1307 3.00779 3.26971 3.53154 3.79193
4.04923 4.30155 4.54687 4.78314 5.00848 5.22142 5.42113 5.6076 5.7817
5.9451 6.10009 6.2494 6.39597 6.54278 6.69267 6.84827 7.01182 7.18506
7.3691 7.56436 7.77052 7.98657 8.21088 8.44124 8.67488 8.90837 9.13753
9.35745 9.56264 9.74762 9.90781 10.0405 10.1453 10.2243 10.281 10.3196
4.88101 4.7361 4.57856 4.40904 4.2286 4.03848 3.83995 3.63409 3.42169
3.20324 3.07784 3.34597 3.61356 3.87893 4.14023 4.39548 4.64272 4.88016
5.10625 5.31992 5.52065 5.70861 5.88471 6.0505 6.20807 6.35989 6.50864
6.65707 6.80785 6.96345 7.126 7.29717 7.47804 7.66903 7.86984 8.07951
8.29648 8.51861 8.74323 8.96705 9.18618 9.39615 9.59219 9.76969 9.92489
10.0555 10.1613 10.2436 10.3051 10.3492 4.98009 4.83577 4.67737 4.50574
4.32225 4.12855 3.92621 3.71654 3.50038 3.2781 3.15093 3.42643 3.70091
3.97226 4.23823 4.49667 4.74571 4.98388 5.21013 5.42387 5.62503 5.81403
5.99182 6.15985 6.31997 6.47438 6.62545 6.77568 6.92751 7.08321 7.24478
7.41376 7.59115 7.77733 7.97205 8.17443 8.38304 8.59593 8.81061 9.02404
9.23268 9.43253 9.61945 9.78955 9.93972 10.0681 10.1743 10.2593 10.3251
10.3744 5.07917 4.93556 4.77619 4.6022 4.41543 4.21806 4.01213 3.79923
3.58022 3.35524 3.22761 3.51232 3.79558 4.07452 4.34628 4.6084 4.85913
5.09747 5.32304 5.53598 5.73677 5.92616 6.10518 6.27513 6.4376 6.59445
6.74775 6.89971 7.05255 7.20832 7.36884 7.53551 7.70921 7.89026 8.07845
8.27302 8.47271 8.67582 8.88015 9.08299 9.28114 9.47107 9.64917 9.81211
9.95728 10.0831 10.1891 10.2759 10.3451 10.3987 5.17594 5.03306 4.87253
4.69585 4.50553 4.30449 4.09545 3.88033 3.66003 3.4343 3.30834 3.60514
3.90009 4.1891 4.46827 4.73466 4.98674 5.22425 5.44787 5.65874 5.85809
6.04707 6.22676 6.39822 6.5627 6.72167 6.87686 7.03022 7.18376 7.33936
7.49865 7.66287 7.83276 8.00859 8.19013 8.37674 8.56739 8.76066 8.95467
9.14705 9.335 9.51539 9.68504 9.84107 9.98121 10.1041 10.2092 10.2969
10.3684 10.4253 5.26693 5.12462 4.96257 4.78277 4.5886 4.38401 4.17261
3.95689 3.73773 3.51431 3.39345 3.70665 4.01773 4.32048 4.60926 4.88041
5.13283 5.36765 5.58723 5.79418 5.99073 6.17843 6.35827 6.5309 6.69702
6.85761 7.01407 7.16816 7.32176 7.47667 7.63439 7.79598 7.96203 8.13271
8.30777 8.48667 8.66856 8.8523 9.03634 9.21868 9.39685 9.56811 9.72964
9.87891 10.0139 10.1334 10.2368 10.3245 10.3972 10.456 5.34729 5.20512
5.04096 4.85745 4.65907 4.45113 4.23847 4.02439 3.80989 3.59337 3.48285
3.81897 4.15292 4.47483 4.77604 5.05182 5.30222 5.53092 5.7431 5.94353
6.13567 6.32136 6.50116 6.67491 6.8424 7.00396 7.16071 7.31437 7.46695
7.6203 7.77585 7.93454 8.09677 8.26254 8.43153 8.60324 8.77697 8.9518
9.12647 9.2993 9.46819 9.63071 9.78439 9.92695 10.0566 10.1722 10.2733
10.3599 10.4326 10.4922 5.411 5.26808 5.10092 4.91289 4.70982 4.49868
4.28599 4.0763 3.87108 3.66794 3.57556 3.94431 4.31144 4.66053 4.97756
5.25636 5.49979 5.71645 5.91611 6.10662 6.29276 6.47631 6.65672 6.83222
7.0011 7.16278 7.31823 7.4696 7.61941 7.76983 7.92236 8.07776 8.23617
8.39735 8.56084 8.72607 8.89241 9.05911 9.22515 9.38912 9.54924 9.7034
9.84942 9.98528 10.1094 10.2207 10.3187 10.4033 10.475 10.5344 5.45145
5.30633 5.1349 4.94126 4.73266 4.51804 4.30613 4.10353 3.91294 3.7316
3.66836 4.08395 4.5 4.88823 5.2248 5.50192 5.72907 5.92415 6.10421
6.28096 6.46023 6.64295 6.82633 7.00561 7.1764 7.33684 7.48832 7.63432
7.77866 7.9242 8.07252 8.22411 8.3787 8.53567 8.69427 8.8538 9.01361
9.17302 9.3312 9.48699 9.63887 9.78505 9.92363 10.0528 10.1712 10.2779
10.3722 10.4541 10.5239 10.5821 5.46281 5.3135 5.13608 4.93525 4.71957
4.50004 4.28822 4.09394 3.92275 3.77282 3.75298 4.23491 4.72325 5.1683
5.52773 5.79291 5.98827 6.14845 6.30067 6.46049 6.63394 6.81994 7.01181
7.19939 7.37335 7.53004 7.67274 7.80834 7.94321 8.08125 8.22396 8.3712
8.52201 8.67517 8.8295 8.98408 9.13815 9.29109 9.44217 9.59045 9.73467
9.87332 10.0048 10.1275 10.2402 10.342 10.4323 10.511 10.5783 10.6345