# vtk DataFile Version 3.0
vtk output
ASCII
DATASET RECTILINEAR_GRID
FIELD FieldData 2
base_index 1 3 int
0 0 0
avtOriginalBounds 1 6 double
-10 10 -10 10 -10 10
DIMENSIONS 50 50 50
X_COORDINATES 50 float
-10 -9.59184 -9.18367 -8.77551 -8.36735 -7.95918 -7.55102 -7.14286 -6.73469
-6.32653 -5.91837 -5.5102 -5.10204 -4.69388 -4.28571 -3.87755 -3.46939 -3.06122
-2.65306 -2.2449 -1.83673 -1.42857 -1.02041 -0.612245 -0.204082 0.204082 0.612245
1.02041 1.42857 1.83673 2.2449 2.65306 3.06122 3.46939 3.87755 4.28572
4.69388 5.10204 5.5102 5.91837 6.32653 6.73469 7.14286 7.55102 7.95918
8.36735 8.77551 9.18367 9.59184 10
Y_COORDINATES 50 float
-10 -9.59184 -9.18367 -8.77551 -8.36735 -7.95918 -7.55102 -7.14286 -6.73469
-6.32653 -5.91837 -5.5102 -5.10204 -4.69388 -4.28571 -3.87755 -3.46939 -3.06122
-2.65306 -2.2449 -1.83673 -1.42857 -1.02041 -0.612245 -0.204082 0.204082 0.612245
1.02041 1.42857 1.83673 2.2449 2.65306 3.06122 3.46939 3.87755 4.28572
4.69388 5.10204 5.5102 5.91837 6.32653 6.73469 7.14286 7.55102 7.95918
8.36735 8.77551 9.18367 9.59184 10
Z_COORDINATES 50 float
-10 -9.59184 -9.18367 -8.77551 -8.36735 -7.95918 -7.55102 -7.14286 -6.73469
-6.32653 -5.91837 -5.5102 -5.10204 -4.69388 -4.28571 -3.87755 -3.46939 -3.06122
-2.65306 -2.2449 -1.83673 -1.42857 -1.02041 -0.612245 -0.204082 0.204082 0.612245
1.02041 1.42857 1.83673 2.2449 2.65306 3.06122 3.46939 3.87755 4.28572
4.69388 5.10204 5.5102 5.91837 6.32653 6.73469 7.14286 7.55102 7.95918
8.36735 8.77551 9.18367 9.59184 10
CELL_DATA 117649
POINT_DATA 125000
SCALARS temp float
LOOKUP_TABLE default
8.34136 8.23548 8.12 7.99412 7.857 7.70807 7.54829 7.383 7.22497
7.08821 6.97131 6.85851 6.7372 6.60293 6.45563 6.29654 6.12701 5.94835
5.7618 5.56861 5.37015 5.16785 4.96322 4.75776 4.55287 4.34977 4.14943
3.9525 3.75934 3.56996 3.38412 3.20138 3.02115 2.84279 2.66566 2.48917
2.31279 2.22513 2.40404 2.58212 2.7587 2.93298 3.10408 3.27109 3.4331
3.58932 3.73911 3.88207 4.01799 4.14689 8.48687 8.38281 8.26896 8.14458
8.00899 7.86183 7.70431 7.54171 7.38554 7.24782 7.12725 7.01014 6.88501
6.74736 6.59678 6.43415 6.26065 6.07741 5.88561 5.68652 5.48157 5.27234
5.06051 4.84779 4.63579 4.42592 4.21931 4.01672 3.81854 3.62482 3.43528
3.2494 3.0665 2.88586 2.7067 2.52835 2.35019 2.2622 2.44537 2.62792
2.80907 2.98792 3.16339 3.33438 3.49981 3.65874 3.81047 3.95456 4.09089
4.21959 8.63741 8.53595 8.4247 8.30319 8.17109 8.02859 7.87738 7.72217
7.57129 7.43225 7.30403 7.17774 7.04489 6.90127 6.74577 6.57861 6.40047
6.2122 6.01478 5.80943 5.59763 5.38108 5.16165 4.94126 4.72174 4.50471
4.29145 4.08284 3.87935 3.681 3.48751 3.29828 3.11256 2.9295 2.74825
2.568 2.38804 2.29976 2.48732 2.6745 2.86044 3.04405 3.2241 3.39923
3.56814 3.72973 3.88321 4.02817 4.16458 4.29272 8.79289 8.69463 8.58672
8.46894 8.34136 8.20465 8.06065 7.91304 7.76698 7.62644 7.4907 7.35478
7.21323 7.06258 6.90129 6.72896 6.54572 6.35204 6.1487 5.93682 5.71788
5.49371 5.26636 5.03797 4.81061 4.58609 4.36587 4.15094 3.94182 3.73857
3.54086 3.34805 3.1593 2.97366 2.79018 2.60794 2.42613 2.33755 2.52953
2.72142 2.91225 3.10076 3.28549 3.46483 3.63722 3.80136 3.95638 4.10191
4.23807 4.36532 8.95309 8.85849 8.75433 8.64061 8.51768 8.3864 8.24846
8.10646 7.96341 7.8213 7.67966 7.53581 7.38643 7.22892 7.06168 6.88389
6.69528 6.49595 6.28647 6.06784 5.84156 5.60956 5.37409 5.13751 4.90209
4.66988 4.44246 4.22097 4.00596 3.79754 3.59535 3.39869 3.20666 3.01823
2.83233 2.64795 2.46417 2.3752 2.57152 2.76805 2.96372 3.15711 3.34649
3.52998 3.70573 3.87224 4.02856 4.1744 4.31003 4.43615 9.11782 9.02718
8.92692 8.8172 8.69848 8.57165 8.4381 8.2996 8.15794 8.01417 7.86802
7.718 7.56208 7.39834 7.22532 7.04202 6.84787 6.64272 6.42693 6.20141
5.96767 5.72777 5.4841 5.23925 4.99573 4.75572 4.521 4.29277 4.07169
3.85786 3.65091 3.45014 3.25456 3.06306 2.87449 2.68776 2.50182 2.41228
2.61271 2.81363 3.01388 3.21188 3.40567 3.59306 3.77193 3.94056 4.09795
4.24389 4.37885 4.50375 9.28692 9.20042 9.10406 8.99808 8.88295 8.75951
8.62885 8.49224 8.35083 8.20526 8.0554 7.90038 7.73888 7.56947 7.39087
7.20202 7.00218 6.79103 6.56877 6.33627 6.09506 5.84727 5.59548 5.34247
5.09091 4.84317 4.60114 4.36613 4.13884 3.9194 3.70747 3.50228 3.30284
3.10797 2.91645 2.72706 2.53872 2.44833 2.65244 2.85728 3.0616 3.26369
3.46136 3.65219 3.83377 4.00421 4.16247 4.30842 4.44275 4.56657 9.46027
9.37805 9.28555 9.18299 9.07085 8.94987 8.82098 8.68514 8.54319 8.39561
8.24236 8.0829 7.91634 7.74156 7.55741 7.36285 7.15709 6.93969 6.71079
6.47123 6.22256 5.96701 5.70731 5.44637 5.18701 4.93174 4.68253 4.44078
4.20722 3.98204 3.76489 3.55503 3.35141 3.15283 2.95798 2.76561 2.57451
2.48292 2.69012 2.89819 3.10582 3.31117 3.51193 3.70546 3.88918 4.06108
4.22008 4.36614 4.50008 4.62321 9.6378 9.56002 9.47132 9.3719 9.26224
9.14302 9.01507 8.87922 8.73616 8.58631 8.42972 8.26602 8.09454 7.91437
7.72449 7.52392 7.31186 7.08787 6.85208 6.60534 6.34926 6.08615 5.81883
5.55031 5.28351 5.02102 4.76486 4.51649 4.27669 4.04567 3.82312 3.60831
3.40019 3.19752 2.99896 2.80319 2.60895 2.51572 2.72528 2.93572 3.14567
3.35326 3.55608 3.7514 3.93658 4.10955 4.26922 4.41562 4.54963 4.67264
9.81943 9.74626 9.66135 9.56487 9.4573 9.33932 9.21173 9.07533 8.93077
8.77844 8.61843 8.45048 8.27402 8.08827 7.89231 7.68526 7.46638 7.23533
6.99229 6.73819 6.47472 6.20424 5.92962 5.65393 5.38011 5.11076 4.84795
4.59314 4.34716 4.11026 3.88215 3.66213 3.44918 3.24204 3.03935 2.83975
2.64193 2.54656 2.75768 2.96954 3.18076 3.38944 3.5932 3.78933 3.97522
4.14887 4.30921 4.45625 4.59086 4.71441 10.005 9.93665 9.85556 9.76187
9.65611 9.539 9.41141 9.27414 9.12787 8.97298 8.80956 8.63733 8.45578
8.26419 8.06173 7.84763 7.62131 7.3826 7.13184 6.8701 6.59914 6.32141
6.03977 5.75727 5.47682 5.20099 4.93182 4.67078 4.41872 4.17589 3.94208
3.71661 3.49849 3.28648 3.07923 2.87534 2.67349 2.57548 2.78736 2.99972
3.21117 3.41987 3.6235 3.81951 4.00545 4.17941 4.34038 4.48834 4.62405
4.74876 10.194 10.1308 10.0536 9.96266 9.8585 9.74204 9.61425 9.47605
9.32813 9.17086 9.00424 8.82793 8.64134 8.44374 8.23438 8.01265 7.7782
7.53111 7.272 7.00215 6.72347 6.43844 6.1499 5.86083 5.57405 5.29203
5.01676 4.74965 4.49156 4.24278 4.00313 3.77197 3.54835 3.33108 3.11882
2.91019 2.70387 2.60274 2.81466 3.02669 3.2375 3.44531 3.64795 3.8431
4.02852 4.20248 4.36403 4.51308 4.65024 4.77658 10.3859 10.3281 10.2549
10.1665 10.0638 9.9479 9.81994 9.68103 9.5319 9.37285 9.20371 9.02393
8.8327 8.6292 8.4127 8.18279 7.93943 7.68311 7.41484 7.1362 6.84931
6.5567 6.26117 5.96557 5.67257 5.38451 5.10325 4.83016 4.56606 4.31126
4.06559 3.82848 3.59905 3.37613 3.15844 2.94463 2.73342 2.62877 2.84013
3.0512 3.2607 3.46695 3.66801 3.86178 4.04628 4.21999 4.38201 4.53217
4.67093 4.79916 10.5791 10.527 10.4578 10.372 10.2707 10.1553 10.0274
9.88843 9.73907 9.57951 9.40924 9.22727 9.03241 8.82354 8.59991 8.36133
8.10822 7.84161 7.56308 7.27467 6.97876 6.678 6.3751 6.07276 5.77343
5.47927 5.192 4.91287 4.64267 4.3817 4.12982 3.88651 3.65093 3.42199
3.19847 2.9791 2.76263 2.6541 2.86448 3.07414 3.28189 3.48621 3.68533
3.87742 4.06076 4.23401 4.39634 4.54752 4.68786 4.81801 10.7715 10.7253
10.6601 10.5767 10.4765 10.3618 10.2346 10.0967 9.94881 9.79094 9.62198
9.44017 9.24355 9.03048 8.80006 8.55237 8.28844 8.01015 7.71987 7.42031
7.11422 6.80439 6.49345 6.18387 5.87786 5.57732 5.28379 4.9984 4.72188
4.45451 4.19617 3.94637 3.70433 3.46903 3.23934 3.01405 2.79201 2.67933
2.88847 3.09648 3.30225 3.50444 3.70148 3.89177 4.07383 4.24647 4.40893
4.56096 4.70269 4.83464 10.9598 10.9193 10.8579 10.7765 10.6773 10.5635
10.4379 10.3028 10.1592 10.0066 9.84289 9.66508 9.46988 9.25466 9.01816
8.76081 8.48462 8.19267 7.88858 7.57595 7.2581 6.93794 6.61801 6.30045
5.98715 5.67972 5.37947 5.08741 4.80419 4.53007 4.26493 4.00833 3.75953
3.51758 3.28141 3.04993 2.82208 2.70506 2.91285 3.11911 3.32286 3.5229
3.71786 3.90634 4.08706 4.25898 4.4214 4.57402 4.71691 4.85039 11.139
11.104 11.0456 10.9655 10.8669 10.7541 10.6314 10.5018 10.3667 10.2247
10.0724 9.90469 9.71593 9.5018 9.26033 8.9925 8.70182 8.39333 8.07248
7.74421 7.41255 7.08054 6.75045 6.42401 6.10263 5.78757 5.4799 5.18052
4.89001 4.60864 4.33631 4.07256 3.81671 3.56784 3.32498 3.08711 2.85326
2.7318 2.93827 3.14282 3.34462 3.5426 3.73556 3.92229 4.10166 4.27276
4.43496 4.58793 4.73165 4.86635 11.3026 11.2719 11.2154 11.1354 11.0366
10.9251 10.8068 10.6863 10.5653 10.4419 10.3102 10.1618 9.98721 9.77909
9.53417 9.2543 8.94556 8.61618 8.27445 7.92717 7.57924 7.23368 6.89226
6.55598 6.22563 5.90198 5.58593 5.27828 4.97968 4.69039 4.41034 4.13907
3.87588 3.61991 3.3702 3.12581 2.88586 2.75992 2.96519 3.16819 3.36818
3.56425 3.75534 3.94041 4.11845 4.28866 4.45046 4.60352 4.74776 4.88333
11.442 11.414 11.3574 11.2756 11.1751 11.0644 10.9521 10.845 10.7458
10.6518 10.5541 10.4388 10.2902 10.0954 9.84885 9.554 9.2214 8.86464
8.49633 8.12587 7.75898 7.39836 7.0447 6.69784 6.35758 6.02419 5.69841
5.3812 5.07336 4.77527 4.48686 4.20765 3.93689 3.67366 3.41702 3.16608
2.91998 2.78957 2.99386 3.19552 3.39391 3.58824 3.77762 3.96112 4.13785
4.30711 4.46835 4.62126 4.76573 4.9018 11.5478 11.5195 11.4598 11.3732
11.2685 11.1572 11.0517 10.9622 10.8937 10.8433 10.7982 10.7364 10.6314
10.4609 10.2147 9.89953 9.53388 9.1403 8.73796 8.33954 7.95133 7.57485
7.20887 6.85121 6.50024 6.15563 5.81828 5.48966 5.17101 4.86295 4.56543
4.27784 3.99927 3.72872 3.46516 3.20769 2.95549 2.82069 3.02424 3.22479
3.4218 3.61461 3.80244 3.98447 4.15993 4.32819 4.48875 4.6413 4.7857
4.92197 11.6103 11.5776 11.5106 11.4148 11.3015 11.186 11.0857 11.0162
10.9872 10.9973 11.0293 11.0499 11.0148 10.8845 10.6409 10.2962 9.88375
9.44066 8.9955 8.56458 8.1539 7.76253 7.38582 7.01828 6.65603 6.2982
5.94653 5.60379 5.27218 4.9527 4.6452 4.3488 4.06229 3.78442 3.51404
3.25016 2.99197 2.8529 3.05596 3.25565 3.45152 3.64301 3.82945 4.01013
4.18438 4.35163 4.51141 4.66344 4.80756 4.94374 11.6217 11.5795 11.4997
11.3887 11.2598 11.1326 11.0309 10.9787 10.9943 11.0814 11.2201 11.3612
11.4333 11.3663 11.1277 10.74 10.2626 9.75539 9.25914 8.79319 8.36168
7.95952 7.57667 7.20214 6.8284 6.45429 6.08399 5.72317 5.37575 5.04313
4.72481 4.41929 4.12483 3.83979 3.56279 3.29272 3.02873 2.88558 3.08837
3.28743 3.48238 3.67276 3.85799 4.03746 4.21059 4.37685 4.53583 4.68723
4.83091 4.96679 11.5784 11.521 11.422 11.2879 11.1331 10.9811 10.8629
10.8147 10.8699 11.0444 11.3187 11.6248 11.8509 11.8782 11.6487 11.2037
10.644 10.0618 9.51098 9.01218 8.56601 8.16187 7.78215 7.40683 7.02178
6.62626 6.23049 5.846 5.47934 5.13192 4.80218 4.48754 4.18539 3.89353
3.61026 3.33433 3.06484 2.91784 3.12056 3.31918 3.51343 3.7029 3.88711
4.06555 4.23768 4.40304 4.56125 4.71201 4.85515 4.9906 11.4825 11.4046
11.2802 11.1142 10.9202 10.7228 10.5605 10.4857 10.5566 10.813 11.2418
11.7517 12.1773 12.3326 12.1238 11.6194 10.9759 10.3227 9.725 9.20291
8.75344 8.36116 7.99982 7.63483 7.23909 6.81364 6.38238 5.96754 5.57854
5.21544 4.87449 4.5513 4.24211 3.94405 3.65506 3.37376 3.09918 2.94864
3.15142 3.34978 3.5435 3.73227 3.91568 4.09329 4.26462 4.42923 4.58677
4.73693 4.87954 5.01451 11.3428 11.2408 11.0865 10.8809 10.6333 10.3647
10.1168 9.9605 9.99371 10.3021 10.8869 11.6198 12.2663 12.5717 12.4105
11.8799 11.1878 10.4938 9.87221 9.34364 8.90472 8.53935 8.21482 7.87596
7.4709 7.00454 6.52751 6.07794 5.66627 5.28875 4.93817 4.60789 4.29286
3.98956 3.69564 3.4096 3.1305 2.97681 3.17972 3.37794 3.57132 3.75961
3.94247 4.11949 4.29026 4.45436 4.61141 4.76111 4.90327 5.03778 11.1728
11.0465 10.8618 10.6141 10.3035 9.94019 9.55816 9.2424 9.14948 9.45439
10.1896 11.1513 12.0074 12.4591 12.3833 11.8967 11.2259 10.5434 9.93119
9.41498 8.9962 8.66332 8.38298 8.08012 7.66927 7.16038 6.63997 6.16159
5.73326 5.34611 4.98938 4.65448 4.3354 4.02818 3.73035 3.44041 3.1575
3.00114 3.20423 3.40241 3.5956 3.78363 3.9662 4.14296 4.31348 4.47735
4.63417 4.78363 4.9255 5.05965 10.9886 10.842 10.6327 10.3498 9.98179
9.51989 8.97537 8.42827 8.10461 8.34005 9.23706 10.4435 11.4809 12.0474
12.072 11.685 11.0971 10.4729 9.8986 9.40764 9.00825 8.69414 8.43463
8.14938 7.74018 7.21919 6.6871 6.20221 5.77096 5.38245 5.02469 4.68849
4.36762 4.05811 3.75759 3.46476 3.1789 3.02045 3.2237 3.42191 3.61508
3.80309 3.9857 4.16253 4.33318 4.49717 4.6541 4.8036 4.9454 5.07936
10.8057 10.6469 10.4255 10.1267 9.72934 9.20679 8.54092 7.78494 7.21156
7.35169 8.41257 9.83339 10.9753 11.58 11.6602 11.3626 10.8676 10.3166
9.79091 9.32777 8.93905 8.62003 8.34239 8.0403 7.6415 7.15522 6.65625
6.19344 5.77556 5.39502 5.04185 4.70796 4.38776 4.07774 3.77594 3.48135
3.19353 3.03365 3.23701 3.4353 3.62861 3.81687 3.99984 4.17717 4.34836
4.51292 4.67034 4.82022 4.96224 5.09624 10.6357 10.4752 10.259 9.97271
9.59462 9.09438 8.44494 7.68547 7.08925 7.23584 8.34412 9.75378 10.7971
11.294 11.3288 11.0537 10.6144 10.1196 9.63548 9.19477 8.8085 8.4715
8.16036 7.83231 7.44845 7.01356 6.56783 6.14326 5.74966 5.38414 5.04019
4.71181 4.39461 4.0859 3.78426 3.48913 3.20043 3.03982 3.2432 3.44159
3.63518 3.82396 4.0077 4.18597 4.35821 4.5238 4.68216 4.8328 4.97536
5.10964 10.485 10.3332 10.1389 9.89378 9.58578 9.20014 8.7333 8.24535
7.96847 8.29222 9.27033 10.3506 11.0405 11.2647 11.1452 10.8171 10.3837
9.91624 9.45825 9.03217 8.64497 8.29145 7.9551 7.61182 7.24297 6.85033
6.45227 6.06623 5.69971 5.35234 5.0204 4.69986 4.38764 4.08189 3.78183
3.48738 3.19888 3.03826 3.24149 3.43995 3.63397 3.82358 4.00852 4.18825
4.36206 4.52921 4.68898 4.84079 4.98422 5.11905 10.3548 10.2189 10.0574
9.87144 9.66377 9.4435 9.23974 9.13238 9.27902 9.82344 10.6289 11.2757
11.5082 11.3873 11.0638 10.6429 10.1839 9.72153 9.27643 8.85892 8.47107
8.10792 7.75888 7.41097 7.05524 6.69195 6.32882 5.97416 5.63219 5.30291
4.984 4.67273 4.36699 4.06563 3.76843 3.47583 3.18857 3.02859 3.23141
3.42987 3.62444 3.81521 4.00181 4.18355 4.35951 4.52874 4.69039 4.84377
4.98839 5.12403 10.2428 10.1253 9.99899 9.87386 9.76594 9.70194 9.72788
9.91708 10.3496 11.0115 11.6669 11.9798 11.8591 11.4708 10.9861 10.4867
10.0005 9.5365 9.09826 8.68662 8.29971 7.9329 7.57948 7.23245 6.8873
6.54371 6.20463 5.87343 5.5517 5.23881 4.93281 4.63153 4.33338 4.03763
3.74445 3.45469 3.16958 3.01078 3.21286 3.41117 3.6064 3.79865 3.98741
4.17173 4.3504 4.52224 4.6862 4.84149 4.98759 5.12424 10.1458 10.0447
9.94815 9.87202 9.83968 9.88386 10.0481 10.3803 10.9001 11.5253 12.0219
12.1426 11.869 11.3797 10.8362 10.3097 9.81715 9.35761 8.92693 8.52124
8.13686 7.76981 7.41588 7.07136 6.73399 6.40343 6.0806 5.76642 5.46074
5.16215 4.86851 4.57766 4.28802 3.99896 3.71081 3.42478 3.14256 2.98533
3.18624 3.3842 3.58016 3.77422 3.96563 4.15305 4.33494 4.5098 4.67641
4.83387 4.98162 5.11944 10.0621 9.97306 9.89657 9.85124 9.86198 9.95875
10.1722 10.522 10.9898 11.4805 11.818 11.8477 11.5701 11.1136 10.603
10.1016 9.62849 9.18423 8.76482 8.36622 7.98516 7.61891 7.26522 6.92246
6.58982 6.26728 5.95509 5.65308 5.36011 5.07409 4.79238 4.51241 4.23227
3.95103 3.66897 3.38747 3.10875 2.95337 3.15265 3.35001 3.54675 3.7429
3.93736 4.12829 4.31372 4.49185 4.66126 4.82098 4.97045 5.10948 9.99236
9.91097 9.84525 9.81376 9.83953 9.94627 10.151 10.4528 10.8168 11.1618
11.3733 11.3641 11.1355 10.7621 10.3263 9.87915 9.44227 9.02126 8.6159
8.22466 7.84624 7.47976 7.12482 6.78144 6.45006 6.13126 5.82536 5.53187
5.24917 4.97461 4.7049 4.43672 4.16742 3.89544 3.62072 3.34471 3.0701
2.91679 3.11411 3.31067 3.50817 3.70654 3.9042 4.09876 4.28775 4.46907
4.64118 4.80304 4.95412 5.09429 9.9395 9.86339 9.80257 9.77391 9.79718
9.88992 10.0595 10.2943 10.5578 10.7883 10.915 10.8894 10.7103 10.4168
10.0579 9.67027 9.27395 8.87802 8.4862 8.10036 7.72188 7.35214 6.99261
6.64488 6.31061 5.99131 5.68783 5.39993 5.12587 4.86248 4.60558 4.35079
4.0943 3.83359 3.56796 3.29876 3.02913 2.87829 3.07363 3.2693 3.46744
3.66786 3.86845 4.06624 4.25833 4.44238 4.61674 4.78036 4.93276 5.07386
9.90711 9.83678 9.77953 9.74976 9.76359 9.83367 9.96194 10.1338 10.3171
10.4675 10.5406 10.5076 10.3655 10.1331 9.83715 9.50109 9.1407 8.76587
8.38323 7.99796 7.61441 7.23637 6.86719 6.50998 6.16775 5.84318 5.53819
5.25327 4.98683 4.73515 4.49285 4.25397 4.01309 3.76638 3.51227 3.25182
2.98853 2.841 3.03488 3.22978 3.42828 3.63009 3.8327 4.0327 4.22687
4.41272 4.58853 4.75329 4.90653 5.04823 9.89781 9.83612 9.7848 9.75539
9.76031 9.80834 9.89888 10.0183 10.1412 10.2363 10.2749 10.2385 10.1228
9.93487 9.6871 9.39161 9.05851 8.69681 8.31539 7.92282 7.52672 7.13335
6.74784 6.37469 6.01823 5.68269 5.37164 5.08694 4.82756 4.58906 4.36426
4.14485 3.92326 3.69398 3.45442 3.20529 2.95032 2.80747 3.00106 3.19558
3.39397 3.59605 3.79918 3.99977 4.19451 4.38084 4.55705 4.72212 4.8756
5.0175 9.91213 9.86317 9.82204 9.79722 9.79745 9.82822 9.88785 9.96542
10.0425 10.098 10.1134 10.0763 9.98162 9.82925 9.62067 9.3574 9.04255
8.68344 8.29179 7.88082 7.46216 7.04462 6.63475 6.23799 5.85984 5.50634
5.18355 4.89576 4.64314 4.42028 4.21713 4.02188 3.82395 3.6159 3.39418
3.1592 2.91486 2.77845 2.97333 3.16812 3.36596 3.567 3.76886 3.96818
4.16176 4.34712 4.52255 4.68703 4.84012 4.98178 9.94848 9.91659 9.89036
9.87511 9.87592 9.89537 9.93128 9.97585 10.0172 10.0427 10.0415 10.0064
9.93281 9.81555 9.64612 9.41311 9.10922 8.73962 8.32201 7.87775 7.42408
6.97221 6.52922 6.10061 5.69244 5.31271 4.97101 4.67581 4.42973 4.22606
4.05011 3.88461 3.71497 3.5317 3.33063 3.1122 2.88059 2.75233 2.95003
3.14583 3.34293 3.5419 3.74102 3.93745 4.12836 4.31143 4.48502 4.6481
4.80019 4.94121 10.0037 9.99317 9.98656 9.986 9.99287 10.0069 10.0254
10.0435 10.0552 10.0555 10.0411 10.0106 9.96196 9.88767 9.76882 9.5744
9.27743 8.88005 8.41445 7.91774 7.41478 6.91817 6.43388 5.9659 5.51974
5.10501 4.736 4.4279 4.18802 4.00798 3.8657 3.73571 3.59829 3.44216
3.26324 3.0626 2.84492 2.72593 2.92741 3.1249 3.32141 3.51795 3.71355
3.90614 4.09338 4.27325 4.44423 4.6053 4.75593 4.89599 10.074 10.0891
10.1073 10.1271 10.1462 10.1607 10.1669 10.1622 10.1461 10.1214 10.0929
10.0667 10.0469 10.0285 9.98409 9.85161 9.56255 9.11327 8.57041 7.99965
7.43374 6.88381 6.35245 5.84046 5.35122 4.89487 4.49095 4.16417 3.92972
3.77737 3.6741 3.58328 3.47946 3.35037 3.19299 3.00967 2.80586 2.69633
2.90172 3.10123 3.29751 3.49183 3.68392 3.87244 4.05567 4.23194 4.3999
4.55859 4.70748 4.84637 10.1549 10.2004 10.2495 10.2973 10.3364 10.3581
10.356 10.3288 10.2818 10.2263 10.1764 10.1473 10.1526 10.1965 10.2512
10.2155 9.94264 9.41616 8.77088 8.11224 7.47584 6.86847 6.28878 5.73356
5.20265 4.70509 4.2646 3.91644 3.68596 3.56126 3.49621 3.4419 3.36784
3.26191 3.1228 2.95444 2.76306 2.66223 2.87083 3.0722 3.2685 3.46107
3.65009 3.83488 4.01426 4.18694 4.35181 4.50803 4.65507 4.79271 10.2409
10.3221 10.4101 10.4959 10.5659 10.6037 10.5969 10.5438 10.4567 10.3575
10.2712 10.2223 10.2326 10.3169 10.4552 10.5196 10.2769 9.69065 8.96564
8.23371 7.53122 6.86826 6.24456 5.65397 5.0922 4.56565 4.09939 3.73549
3.50687 3.40053 3.36057 3.32963 3.2744 3.18338 3.0567 2.89928 2.71778
2.62407 2.83458 3.03715 3.23343 3.4246 3.61111 3.7927 3.96864 4.13802
4.29998 4.4538 4.59902 4.73542 10.3247 10.4467 10.5824 10.7193 10.8356
10.9024 10.8949 10.8087 10.6655 10.5028 10.3589 10.265 10.2452 10.3143
10.4524 10.5348 10.3342 9.80089 9.10008 8.34197 7.58604 6.8738 6.21599
5.60462 5.03108 4.49839 4.02936 3.66443 3.43542 3.32895 3.28946 3.25991
3.20723 3.11999 2.99828 2.84689 2.67203 2.5834 2.79421 2.99696 3.19279
3.38265 3.56703 3.7459 3.91888 4.08535 4.24467 4.39628 4.5398 4.67502
10.396 10.5619 10.7529 10.9548 11.1367 11.2501 11.2478 11.1175 10.8964
10.6468 10.4229 10.2597 10.1761 10.1763 10.2335 10.2554 10.1047 9.72949
9.15455 8.4121 7.61483 6.86618 6.19129 5.57856 5.01505 4.50037 4.05202
3.70099 3.46981 3.34562 3.28285 3.23348 3.16759 3.07332 2.94937 2.79914
2.62767 2.54196 2.75143 2.95318 3.14791 3.33624 3.51861 3.69509 3.86548
4.02938 4.18635 4.33597 4.47793 4.61208 10.4419 10.6494 10.897 11.1718
11.4351 11.6136 11.6238 11.438 11.1182 10.763 10.4455 10.2005 10.0375
9.94934 9.9089 9.86217 9.74612 9.51139 9.07004 8.36936 7.5668 6.81697
6.15298 5.56081 5.0258 4.54521 4.13014 3.79972 3.56562 3.41632 3.31917
3.23852 3.14974 3.0411 2.90956 2.75665 2.5858 2.5011 2.70779 2.90743
3.10028 3.2867 3.46698 3.64118 3.80921 3.97081 4.12566 4.27348 4.41402
4.54718 10.4478 10.6865 10.9792 11.3168 11.6571 11.9032 11.9288 11.6857
11.2659 10.8093 10.4049 10.0842 9.84713 9.67925 9.5563 9.44663 9.31678
9.11729 8.74086 8.12368 7.39778 6.70579 6.08727 5.53595 5.04146 4.60117
4.22103 3.91071 3.67419 3.50174 3.37142 3.25863 3.14459 3.01869 2.87683
2.71887 2.54672 2.46159 2.66442 2.86099 3.05125 3.23531 3.41327 3.58518
3.75094 3.91038 4.06329 4.20944 4.34868 4.48092 10.4019 10.6528 10.9636
11.3277 11.7024 11.9797 12.0095 11.7308 11.2531 10.7376 10.28 9.9081
9.61683 9.38881 9.20212 9.03266 8.85259 8.61715 8.25612 7.73873 7.13731
6.54224 5.99291 5.49511 5.04629 4.64591 4.29713 4.00399 3.76644 3.57669
3.42017 3.28036 3.14362 3.00111 2.84851 2.68461 2.51012 2.42364 2.62191
2.81473 3.00182 3.18309 3.3585 3.528 3.6915 3.84885 3.9999 4.14449
4.28249 4.41384 10.2992 10.539 10.8328 11.1721 11.5137 11.7571 11.7682
11.4943 11.0316 10.5249 10.0632 9.67429 9.35454 9.08847 8.85694 8.63914
8.41064 8.13905 7.78875 7.34983 6.85637 6.35623 5.87938 5.43735 5.03346
4.66944 4.3474 4.06874 3.83189 3.63086 3.45584 3.29577 3.14093 2.9844
2.82215 2.65251 2.47541 2.38717 2.58052 2.76917 2.95269 3.13083 3.30345
3.47041 3.6316 3.78689 3.93612 4.07918 4.21597 4.34646 8.4533 8.34648
8.22921 8.10031 7.95819 7.801 7.62785 7.44346 7.26792 7.13108 7.03092
6.93528 6.82464 6.6956 6.55012 6.39065 6.21919 6.03734 5.8465 5.64809
5.44365 5.23486 5.02352 4.81144 4.60033 4.3917 4.18671 3.98614 3.79036
3.59931 3.41261 3.2296 3.04951 2.87147 2.69466 2.51836 2.34194 2.25512
2.43852 2.62129 2.80269 2.98181 3.15765 3.32912 3.49515 3.65481 3.80736
3.95232 4.08953 4.21903 8.60477 8.49996 8.38449 8.25732 8.11708 7.96236
7.79294 7.614 7.44352 7.30583 7.19908 7.09678 6.98133 6.84869 6.69997
6.53708 6.36167 6.1751 5.97868 5.77381 5.5621 5.34541 5.12579 4.90533
4.68604 4.46967 4.25761 4.05076 3.84957 3.65398 3.46354 3.27751 3.09497
2.91494 2.73645 2.55863 2.38077 2.294 2.4823 2.67028 2.85707 3.04161
3.22264 3.39884 3.56887 3.73159 3.88617 4.03215 4.16944 4.29829 8.76178
8.65981 8.54727 8.42344 8.28755 8.13921 7.97955 7.814 7.65501 7.51597
7.39551 7.27849 7.15249 7.0128 6.85888 6.69146 6.51145 6.31974 6.11737
5.90566 5.68627 5.46122 5.23281 5.00344 4.77543 4.55082 4.3312 4.11763
3.91063 3.71015 3.51568 3.32639 3.14123 2.95908 2.77884 2.5995 2.42021
2.33359 2.52702 2.72051 2.91306 3.10341 3.29003 3.47126 3.64543 3.81117
3.96754 4.11411 4.25098 4.37864 8.92425 8.82581 8.71701 8.59749 8.46714
8.3264 8.17717 8.02393 7.87394 7.73336 7.60131 7.47038 7.3331 7.18525
7.02522 6.85264 6.66759 6.47043 6.26186 6.04303 5.81563 5.58185 5.34425
5.10557 4.86842 4.63515 4.40757 4.1869 3.97372 3.76799 3.56917 3.37634
3.18832 3.00386 2.82173 2.64079 2.46004 2.37359 2.57229 2.77148 2.97006
3.16652 3.35903 3.54551 3.72391 3.89255 4.05037 4.19707 4.33299 4.45892
9.09207 8.99764 8.893 8.77811 8.65327 8.51937 8.37832 8.2333 8.08832
7.94616 7.80632 7.6652 7.51853 7.36308 7.19692 7.01898 6.82869 6.62589
6.41094 6.18481 5.9492 5.70646 5.45944 5.21118 4.96464 4.72245 4.48663
4.25855 4.03887 3.82757 3.62407 3.42737 3.23619 3.04917 2.86494 2.68222
2.49991 2.41357 2.6175 2.82241 3.02708 3.22977 3.42829 3.62009 3.80267
3.97399 4.13292 4.27929 4.41379 4.53758 9.26511 9.175 9.07466 8.96424
8.84425 8.71569 8.58019 8.43992 8.29716 8.15334 8.00819 7.85988 7.70589
7.54386 7.37192 7.18864 6.993 6.78443 6.56297 6.32944 6.08554 5.83379
5.5773 5.31942 5.06346 4.81226 4.56809 4.33243 4.10602 3.88885 3.68034
3.47942 3.28474 3.09484 2.90821 2.72348 2.53939 2.45297 2.66188 2.87227
3.08279 3.29151 3.49585 3.69278 3.87929 4.053 4.21268 4.35839 4.49119
4.61266 9.44335 9.35776 9.26168 9.15535 9.03936 8.91466 8.78259 8.64472
8.50249 8.35677 8.2075 8.05369 7.89374 7.7259 7.54844 7.35979 7.15864
6.94413 6.71603 6.47505 6.22291 5.96226 5.69647 5.42919 5.16398 4.90394
4.65148 4.40821 4.17493 3.95168 3.73785 3.53236 3.33382 3.14065 2.95127
2.76417 2.57799 2.49117 2.70456 2.91985 3.13561 3.3497 3.55924 3.76073
3.95068 4.12638 4.28656 4.4315 4.56267 4.68202 9.62686 9.54595 9.45403
9.35138 9.23858 9.11653 8.98636 8.84931 8.70646 8.55849 8.40548 8.24685
8.08155 7.90817 7.72514 7.53086 7.32387 7.10309 6.86816 6.6197 6.35944
6.09018 5.81549 5.53926 5.26525 4.99673 4.73625 4.4855 4.24534 4.01585
3.79645 3.58606 3.38325 3.1864 2.99383 2.80394 2.61526 2.52756 2.74468
2.96396 3.18391 3.40226 3.61586 3.82089 4.01351 4.19075 4.35134 4.49576
4.62576 4.74362 9.81583 9.73976 9.65193 9.55258 9.4423 9.32194 9.19256
9.05524 8.91093 8.76025 8.60339 8.44003 8.26938 8.09028 7.90129 7.70082
7.48739 7.25984 7.01776 6.76174 6.49355 6.2161 5.93309 5.64854 5.36637
5.08994 4.82187 4.56391 4.31697 4.08118 3.85601 3.64041 3.43294 3.23195
3.03571 2.84253 2.65083 2.56167 2.78154 3.00363 3.22639 3.44746 3.66358
3.87078 4.06505 4.24337 4.40446 4.54889 4.67858 4.79594 10.0105 9.93948
9.8557 9.75936 9.65105 9.53166 9.40224 9.26383 9.11739 8.96354 8.80254
8.63419 8.45787 8.27254 8.07689 7.86944 7.64875 7.41374 7.16403 6.90028
6.62432 6.33913 6.04845 5.75636 5.46679 5.18312 4.908 4.64319 4.38966
4.14759 3.9165 3.6954 3.48288 3.27728 3.07685 2.87981 2.68453 2.59326
2.81478 3.03836 3.26239 3.48448 3.70139 3.90921 4.10406 4.28299 4.44475
4.58991 4.72031 4.83832 10.211 10.1454 10.0657 9.97213 9.86537 9.74636
9.61625 9.47618 9.32712 9.16974 9.0043 8.83065 8.64821 8.45604 8.25293
8.03754 7.80861 7.56526 7.30729 7.0355 6.75183 6.45926 6.16152 5.86262
5.56641 5.2762 4.99459 4.72335 4.46346 4.21516 3.97804 3.75118 3.53322
3.32253 3.11734 2.91587 2.71642 2.62236 2.84446 3.06823 3.29205 3.51356
3.72967 3.93673 4.13117 4.31028 4.47287 4.61938 4.75144 4.87117 10.4175
10.3576 10.2821 10.1911 10.0855 9.96646 9.83522 9.69311 9.5412 9.38016
9.21022 9.03114 8.8423 8.64276 8.4314 8.20709 7.96886 7.71616 7.44913
7.1688 6.87726 6.57748 6.27309 5.96794 5.6657 5.36954 5.08195 4.80466
4.53863 4.28416 4.04091 3.80804 3.58426 3.368 3.1575 2.95099 2.74678
2.64931 2.87101 3.09387 3.31626 3.53594 3.75004 3.95531 4.1486 4.32752
4.49098 4.63923 4.77356 4.89579 10.6296 10.576 10.5047 10.4162 10.3115
10.1919 10.0592 9.91501 9.76039 9.59603 9.42199 9.23783 9.0427 8.83557
8.61538 8.38125 8.13262 7.86943 7.59231 7.30268 7.00279 6.69564 6.3847
6.07357 5.76568 5.46396 5.17073 4.88764 4.61563 4.35502 4.10554 3.8664
3.63642 3.4141 3.19775 2.98563 2.77611 2.67467 2.8952 3.11632 3.33644
3.55346 3.76482 3.96768 4.15936 4.33783 4.50205 4.65212 4.78898 4.91409
10.8467 10.7997 10.7328 10.6465 10.5422 10.4219 10.2877 10.1416 9.98501
9.81837 9.64144 9.45331 9.2527 9.03829 8.80901 8.56426 8.30406 8.02905
7.74053 7.44045 7.13135 6.81626 6.49846 6.18126 5.86774 5.56056 5.26182
4.97303 4.69507 4.42827 4.17239 3.92673 3.69018 3.46134 3.23862 3.02038
2.80505 2.69918 2.91801 3.13684 3.3542 3.56816 3.77645 3.97666 4.16653
4.34433 4.50913 4.66087 4.80019 4.9282 11.0669 11.0269 10.9644 10.88
10.7757 10.6543 10.5188 10.3717 10.2146 10.0478 9.87038 9.68062 9.47638
9.25575 9.01751 8.76142 8.48827 8.1997 7.898 7.58584 7.26619 6.94213
6.61674 6.29297 5.97351 5.66066 5.35625 5.06163 4.77759 4.50443 4.24194
3.98946 3.74599 3.51022 3.28068 3.05586 2.83432 2.72368 2.9405 3.15678
3.37118 3.58197 3.78718 3.98474 4.17276 4.34976 4.5149 4.66801 4.80951
4.94018 11.287 11.2545 11.1961 11.1129 11.008 10.8853 10.749 10.6025
10.4476 10.2843 10.1106 9.92329 9.7188 9.49404 9.2474 8.97912 8.69113
8.38658 8.06916 7.74263 7.41053 7.07601 6.74191 6.41074 6.08469 5.76564
5.45512 5.15429 4.86382 4.58399 4.31458 4.05498 3.80425 3.56119 3.32447
3.09272 2.86463 2.74899 2.96371 3.1774 3.38887 3.59661 3.79889 3.99393
4.18013 4.35623 4.52147 4.6756 4.81885 4.95178 11.5021 11.4768 11.4219
11.3391 11.2326 11.1084 10.9722 10.8288 10.6805 10.5266 10.3635 10.1855
9.98639 9.76101 9.50695 9.22513 8.91937 8.59516 8.25838 7.91432 7.56724
7.22039 6.87617 6.5365 6.20293 5.87687 5.5595 5.25178 4.95431 4.66732
4.39058 4.12352 3.86522 3.6146 3.37042 3.13149 2.89665 2.77587 2.98858
3.19981 3.40854 3.61344 3.81301 4.00571 4.19018 4.3653 4.53038 4.68515
4.8297 4.96441 11.7043 11.6856 11.633 11.5489 11.4397 11.3136 11.179
11.0425 10.9073 10.7718 10.6301 10.4723 10.2876 10.0671 9.80694 9.50911
9.18068 8.83109 8.46963 8.10375 7.73858 7.37723 7.0214 6.67204 6.32989
5.99573 5.67043 5.35482 5.04949 4.75464 4.47006 4.19514 3.92901 3.67062
3.41883 3.17258 2.93085 2.80491 3.01584 3.22487 3.43112 3.63346 3.83057
4.02112 4.2039 4.37796 4.54266 4.6977 4.84308 4.97906 11.8829 11.8692
11.8167 11.7293 11.6154 11.4868 11.3554 11.2309 11.1178 11.0142 10.9101
10.7896 10.6338 10.4268 10.1618 9.84308 9.48364 9.09972 8.70592 8.31263
7.9258 7.54789 7.17919 6.81916 6.46729 6.12368 5.78897 5.46405 5.14962
4.84597 4.55289 4.26971 3.9955 3.72921 3.46976 3.21616 2.96751 2.83644
3.04592 3.25307 3.45717 3.65723 3.85212 4.04067 4.22183 4.39474 4.55884
4.71379 4.85957 4.99631 12.0244 12.0127 11.9573 11.8632 11.7419 11.6095
11.4827 11.3757 11.2964 11.2427 11.2005 11.1438 11.0397 10.8595 10.5906
10.2416 9.83703 9.40495 8.96818 8.54073 8.12873 7.7329 7.35098 6.97987
6.6173 6.26254 5.91632 5.58001 5.25476 4.94107 4.63867 4.34678 4.06429
3.79006 3.52298 3.26208 3.00654 2.87044 3.07885 3.28449 3.48677 3.68484
3.87772 4.06442 4.24399 4.41568 4.57897 4.73355 4.87932 5.01637 12.1143
12.0999 12.0369 11.9316 11.7989 11.6595 11.5367 11.4517 11.4185 11.4379
11.4912 11.5383 11.5225 11.3901 11.1166 10.7201 10.2471 9.74667 9.25333
8.78455 8.34507 7.93188 7.53828 7.15701 6.78299 6.41472 6.05383 5.70306
5.36459 5.03924 4.72659 4.42553 4.13463 3.85249 3.57789 3.30983 3.04751
2.90653 3.11424 3.31873 3.51949 3.71584 3.90694 4.09191 4.26995 4.44039
4.60273 4.75668 4.90213 5.03909 12.1396 12.1163 12.0397 11.9171 11.7662
11.613 11.4887 11.4249 11.4472 11.5642 11.7563 11.9648 12.0941 12.0426
11.7611 11.2871 10.7107 10.1157 9.55114 9.03566 8.56946 8.14321 7.7431
7.35498 6.96914 6.58364 6.20292 5.83306 5.47808 5.13911 4.81526 4.50468
4.20535 3.91545 3.63354 3.35853 3.08962 2.94394 3.15128 3.35492 3.55447
3.74936 3.93889 4.1223 4.2989 4.46808 4.6294 4.78258 4.92745 5.06403