# vtk DataFile Version 3.0
vtk output
ASCII
DATASET RECTILINEAR_GRID
FIELD FieldData 2
base_index 1 3 int
0 0 0
avtOriginalBounds 1 6 double
-10 10 -10 10 -10 10
DIMENSIONS 50 50 50
X_COORDINATES 50 float
-10 -9.59184 -9.18367 -8.77551 -8.36735 -7.95918 -7.55102 -7.14286 -6.73469
-6.32653 -5.91837 -5.5102 -5.10204 -4.69388 -4.28571 -3.87755 -3.46939 -3.06122
-2.65306 -2.2449 -1.83673 -1.42857 -1.02041 -0.612245 -0.204082 0.204082 0.612245
1.02041 1.42857 1.83673 2.2449 2.65306 3.06122 3.46939 3.87755 4.28572
4.69388 5.10204 5.5102 5.91837 6.32653 6.73469 7.14286 7.55102 7.95918
8.36735 8.77551 9.18367 9.59184 10
Y_COORDINATES 50 float
-10 -9.59184 -9.18367 -8.77551 -8.36735 -7.95918 -7.55102 -7.14286 -6.73469
-6.32653 -5.91837 -5.5102 -5.10204 -4.69388 -4.28571 -3.87755 -3.46939 -3.06122
-2.65306 -2.2449 -1.83673 -1.42857 -1.02041 -0.612245 -0.204082 0.204082 0.612245
1.02041 1.42857 1.83673 2.2449 2.65306 3.06122 3.46939 3.87755 4.28572
4.69388 5.10204 5.5102 5.91837 6.32653 6.73469 7.14286 7.55102 7.95918
8.36735 8.77551 9.18367 9.59184 10
Z_COORDINATES 50 float
-10 -9.59184 -9.18367 -8.77551 -8.36735 -7.95918 -7.55102 -7.14286 -6.73469
-6.32653 -5.91837 -5.5102 -5.10204 -4.69388 -4.28571 -3.87755 -3.46939 -3.06122
-2.65306 -2.2449 -1.83673 -1.42857 -1.02041 -0.612245 -0.204082 0.204082 0.612245
1.02041 1.42857 1.83673 2.2449 2.65306 3.06122 3.46939 3.87755 4.28572
4.69388 5.10204 5.5102 5.91837 6.32653 6.73469 7.14286 7.55102 7.95918
8.36735 8.77551 9.18367 9.59184 10
CELL_DATA 117649
POINT_DATA 125000
SCALARS temp float
LOOKUP_TABLE default
10.0096 9.91689 9.8131 9.69722 9.56808 9.42487 9.2686 9.10571 8.95192
8.82482 8.72307 8.62729 8.52165 8.40039 8.26321 8.11142 7.94655 7.77004
7.58327 7.38769 7.18489 6.9766 6.76469 6.55107 6.33759 6.12592 5.91744
5.71317 5.5137 5.31924 5.12962 4.94436 4.76276 4.58401 4.40723 4.23159
4.05629 3.88062 3.704 3.52593 3.34604 3.16406 2.97992 2.79369 2.60564
2.41623 2.22608 2.19121 2.3424 2.48814 10.1842 10.0943 9.99312 9.87973
9.75317 9.61287 9.46018 9.30144 9.15086 9.02354 8.91819 8.81802 8.70861
8.58415 8.44387 8.2887 8.11987 7.93862 7.74622 7.54412 7.33397 7.11766
6.89729 6.67503 6.45302 6.23317 6.0171 5.80598 5.60053 5.40099 5.20716
5.01851 4.83425 4.65344 4.47508 4.2982 4.12188 3.94528 3.76768 3.58847
3.40714 3.22333 3.03685 2.84774 2.65627 2.46296 2.26856 2.23213 2.3849
2.53175 10.3649 10.2787 10.1813 10.0721 9.95057 9.81678 9.6727 9.52402
9.38101 9.25315 9.13941 9.02884 8.91084 8.77995 8.63459 8.4748 8.30122
8.11468 7.91622 7.70718 7.48925 7.26446 7.03514 6.80373 6.57266 6.34413
6.11998 5.90156 5.68971 5.4847 5.28633 5.09401 4.90685 4.72382 4.54377
4.3656 4.18826 4.01078 3.83231 3.65207 3.46943 3.28389 3.09513 2.90312
2.70813 2.51075 2.31186 2.27368 2.42786 2.57563 10.5515 10.4698 10.3771
10.2732 10.1579 10.032 9.89773 9.75941 9.62348 9.49492 9.37298 9.25154
9.12376 8.98517 8.83365 8.66848 8.4896 8.29735 8.09248 7.87618 7.65013
7.4165 7.17785 6.9369 6.69637 6.45875 6.22611 6 5.78134 5.57047
5.3672 5.17088 4.98054 4.79503 4.61309 4.4335 4.25506 4.07668 3.89734
3.71614 3.53227 3.34507 3.15407 2.95915 2.76056 2.55896 2.35542 2.3153
2.47071 2.61919 10.7437 10.6671 10.5797 10.4814 10.3726 10.2543 10.1283
9.99797 9.86687 9.73752 9.60942 9.47926 9.34284 9.19679 9.03895 8.86807
8.68357 8.48534 8.27381 8.05 7.8156 7.57291 7.32469 7.07395 6.82372
6.57674 6.33534 6.10121 5.87542 5.65834 5.44979 5.24909 5.05521 4.86689
4.68278 4.50152 4.32178 4.14234 3.96205 3.77983 3.59471 3.40585 3.21263
3.01479 2.81256 2.60668 2.3984 2.35622 2.51266 2.66169 10.9414 10.8702
10.7883 10.6956 10.5928 10.4808 10.3612 10.2362 10.1079 9.97764 9.84511
9.70844 9.56501 9.41233 9.24841 9.07178 8.88148 8.67705 8.45866 8.2272
7.98433 7.73248 7.47463 7.21405 6.95405 6.69764 6.44733 6.20501 5.97181
5.74821 5.53402 5.32855 5.13071 4.93918 4.7525 4.56919 4.38782 4.20702
4.0255 3.84206 3.65555 3.46494 3.26944 3.06867 2.8628 2.65267 2.43971
2.39544 2.55277 2.70225 11.1443 11.0788 11.0024 10.9151 10.8175 10.7105
10.5954 10.4738 10.3469 10.2156 10.0796 9.93785 9.78863 9.63005 9.46032
9.2779 9.08162 8.87078 8.64535 8.40612 8.15476 7.89381 7.62644 7.35617
7.08654 6.8208 6.56163 6.31104 6.07029 5.83991 5.61974 5.40908 5.20684
5.01161 4.82186 4.63601 4.45252 4.26989 4.08673 3.90167 3.71343 3.52083
3.32291 3.11916 2.90973 2.69552 2.47812 2.43187 2.59003 2.73994 11.3523
11.2927 11.2217 11.1394 11.0463 10.9433 10.8313 10.7117 10.5852 10.4525
10.3135 10.1674 10.0131 9.84898 9.67348 9.48509 9.28253 9.06497 8.83227
8.58516 8.32535 8.05547 7.77886 7.49923 7.22032 6.94553 6.6777 6.41894
6.17059 5.93324 5.70679 5.49055 5.2834 5.08393 4.89053 4.70153 4.51529
4.33021 4.14478 3.95753 3.76705 3.57205 3.37145 3.16466 2.95179 2.7338
2.51242 2.46444 2.62345 2.77393 11.5654 11.5119 11.4462 11.3685 11.2794
11.1794 11.0697 10.951 10.8243 10.69 10.548 10.3978 10.2385 10.0688
9.88735 9.69258 9.48326 9.25853 9.01822 8.76308 8.49487 8.2163 7.93085
7.64235 7.35465 7.07126 6.79511 6.52838 6.27247 6.02805 5.79505 5.57283
5.3603 5.156 4.95829 4.76543 4.5757 4.38741 4.19895 4.00877 3.8154
3.61746 3.41384 3.2039 2.98776 2.76643 2.54168 2.49237 2.65234 2.80358
11.7833 11.7361 11.6758 11.6026 11.5169 11.4194 11.3112 11.1929 11.0654
10.9292 10.7841 10.6298 10.4655 10.2901 10.1022 9.90042 9.68367 9.45114
9.20276 8.93934 8.66273 8.37572 8.08186 7.78502 7.48911 7.19765 6.9136
6.63918 6.37584 6.12429 5.88452 5.65596 5.43753 5.22778 5.02506 4.82758
4.63354 4.44119 4.24886 4.05495 3.85795 3.65649 3.44947 3.23629 3.01709
2.7929 2.56548 2.5153 2.67637 2.82864 12.006 11.9654 11.9105 11.8416
11.759 11.6636 11.5563 11.4381 11.3097 11.1714 11.0232 10.8649 10.6954
10.5139 10.319 10.1096 9.88461 9.64352 9.38643 9.11433 8.8292 8.5339
8.23198 7.92731 7.62373 7.32472 7.03321 6.75141 6.48078 6.22208 5.97537
5.7401 5.51527 5.29946 5.09099 4.88809 4.6889 4.49164 4.2946 4.09616
3.89484 3.68931 3.47856 3.26207 3.04003 2.81346 2.58404 2.53342 2.69572
2.84926 12.2329 12.1992 12.1499 12.0851 12.0055 11.9119 11.8054 11.6871
11.5578 11.4177 11.2668 11.1046 10.9301 10.7423 10.54 10.3222 10.0881
9.83751 9.5709 9.28952 8.99554 8.69189 8.38209 8.06991 7.75907 7.45294
7.15433 6.86541 6.58763 6.32175 6.06789 5.82559 5.59387 5.37137 5.15645
4.94733 4.74217 4.53918 4.33666 4.133 3.92678 3.71676 3.50203 3.28221
3.05754 2.82899 2.59812 2.54738 2.71099 2.86595 12.463 12.4367 12.3931
12.3324 12.2555 12.1636 12.058 11.9399 11.8103 11.6692 11.5164 11.3512
11.1722 10.9783 10.7683 10.5414 10.2972 10.0361 9.75889 9.46736 9.1639
8.85154 8.53374 8.21413 7.89622 7.58318 7.27768 6.98178 6.69689 6.42377
6.16257 5.91288 5.67379 5.44401 5.22195 5.00588 4.794 4.58457 4.3759
4.16647 3.95491 3.74011 3.52129 3.29817 3.07103 2.84077 2.60882 2.55816
2.72305 2.87949 12.6949 12.6762 12.6384 12.5817 12.5074 12.4172 12.3128
12.1957 12.0669 11.9265 11.7736 11.6069 11.4248 11.2255 11.0079 10.7714
10.5161 10.2431 9.95399 9.65106 9.3371 9.0153 8.68903 8.36172 8.03662
7.71664 7.40424 7.10133 6.80925 6.52873 6.25993 6.0025 5.75558 5.51796
5.28814 5.06447 4.84523 4.62874 4.41342 4.1978 3.98062 3.76088 3.53791
3.31152 3.08201 2.85021 2.61735 2.56682 2.73292 2.8908 12.9259 12.915
12.8828 12.8299 12.7581 12.6697 12.5672 12.4526 12.3268 12.1897 12.0398
11.8747 11.6918 11.4888 11.2641 11.0175 10.7499 10.4633 10.1604 9.84427
9.51834 9.18593 8.85034 8.51471 8.18198 7.85472 7.53514 7.22497 6.92543
6.63722 6.36051 6.09495 5.83977 5.59382 5.35571 5.12389 4.89676 4.67275
4.45038 4.22829 4.00531 3.78055 3.55342 3.32379 3.09193 2.8586 2.62485
2.57441 2.74157 2.90078 13.1518 13.1487 13.1219 13.0723 13.0026 12.9163
12.8167 12.7068 12.5875 12.4582 12.3162 12.1576 11.9781 11.774 11.5432
11.286 11.0043 10.7017 10.3824 10.0508 9.71083 9.36623 9.0201 8.67524
8.33412 7.99894 7.67159 7.35362 7.04614 6.7498 6.46474 6.19065 5.92679
5.67209 5.42526 5.18488 4.94949 4.71763 4.48795 4.2592 4.03031 3.80046
3.56915 3.33623 3.10198 2.86702 2.63227 2.58178 2.74986 2.91023 13.3668
13.371 13.3487 13.3016 13.2335 13.1494 13.0544 12.9523 12.8446 12.7298
12.6035 12.4591 12.2893 12.0884 11.8532 11.5845 11.286 10.9638 10.6244
10.274 9.91748 9.55873 9.20061 8.84536 8.49486 8.15083 7.81482 7.4882
7.17202 6.86688 6.57293 6.28985 6.01692 5.75314 5.4973 5.24809 5.00417
4.76426 4.52711 4.29158 4.0567 3.82171 3.58614 3.34985 3.11306 2.8763
2.64035 2.58963 2.75845 2.91981 13.5631 13.5733 13.554 13.5078 13.4402
13.3584 13.2697 13.1798 13.0907 13.0002 12.901 12.7825 12.6325 12.4412
12.2037 11.9217 11.6021 11.2549 10.8902 10.5167 10.1405 9.76547 9.3939
9.02709 8.66607 8.31196 7.96602 7.62952 7.30353 6.98869 6.68514 6.39256
6.11022 5.8371 5.57206 5.31388 5.06135 4.81329 4.56859 4.32622 4.08528
3.84507 3.60513 3.36532 3.1258 2.887 2.64957 2.59843 2.76785 2.93
13.7305 13.7444 13.7256 13.6778 13.6088 13.5287 13.4482 13.3755 13.3143
13.2615 13.2061 13.1309 13.0157 12.8436 12.6065 12.3078 11.9599 11.5794
11.1823 10.7803 10.381 9.98779 9.60167 9.22241 8.84975 8.48406 8.12643
7.77829 7.44093 7.11515 6.80114 6.49849 6.20639 5.92377 5.64948 5.38233
5.1212 4.86501 4.61277 4.36353 4.11648 3.87096 3.62652 3.38301 3.14053
2.89942 2.66023 2.60845 2.77832 2.94108 13.8574 13.8714 13.8493 13.7962
13.7225 13.6422 13.5704 13.52 13.4976 13.4999 13.5116 13.5052 13.4473
13.3085 13.0749 12.7529 12.3652 11.9395 11.5003 11.0638 10.6383 10.2261
9.82543 9.43359 9.04834 8.66918 8.29738 7.93505 7.58414 7.2458 6.92023
6.60688 6.30474 6.01255 5.72906 5.45307 5.18347 4.91928 4.65957 4.4035
4.15031 3.8994 3.65034 3.40295 3.15728 2.91361 2.67237 2.61976 2.78996
2.95318 13.9324 13.9414 13.9107 13.8467 13.7627 13.6775 13.6122 13.5866
13.6134 13.6916 13.8008 13.8995 13.9323 13.8475 13.6204 13.264 12.8189
12.3319 11.8392 11.3623 10.9094 10.4794 10.0666 9.66363 9.2652 8.86996
8.48027 8.10002 7.73253 7.37952 7.04115 6.71648 6.40409 6.10238 5.80988
5.52527 5.24745 4.97546 4.70845 4.44564 4.18636 3.93004 3.67627 3.42487
3.17584 2.92939 2.68586 2.63225 2.80271 2.96624 13.946 13.9437 13.8975
13.8149 13.7119 13.6122 13.5449 13.5404 13.6222 13.7964 14.0395 14.2912
14.4616 14.4605 14.2434 13.8357 13.3102 12.743 12.1862 11.6656 11.1874
10.7454 10.3267 9.9168 9.50514 9.08979 8.6763 8.27258 7.88443 7.51427
7.16181 6.82535 6.50268 6.19167 5.89048 5.59762 5.31192 5.03244 4.75838
4.48904 4.22379 3.96213 3.70367 3.44821 3.19573 2.94637 2.7004 2.64568
2.81632 2.98007 13.894 13.8732 13.8036 13.6927 13.5577 13.4269 13.3386
13.3382 13.4681 13.7503 14.1629 14.6228 14.9898 15.1117 14.9104 14.4331
13.8049 13.1432 12.5177 11.9562 11.4607 11.0185 10.6068 10.1986 9.77432
9.33198 8.88522 8.45012 8.03637 7.64656 7.2791 6.93076 6.59815 6.27832
5.96896 5.66837 5.37526 5.08872 4.80797 4.5324 4.26145 3.99464 3.73163
3.4722 3.21629 2.964 2.71553 2.65967 2.83045 2.99436 13.779 13.7331
13.6323 13.482 13.2983 13.1111 12.9673 12.9324 13.0799 13.4621 14.0666
14.7824 15.4026 15.6898 15.5185 14.9685 14.2355 13.484 12.7994 12.2092
11.7115 11.2876 10.9035 10.5126 10.0768 9.59588 9.10182 8.6258 8.18186
7.77101 7.38869 7.02923 6.68756 6.35978 6.04304 5.73539 5.43549 5.14243
4.85552 4.57418 4.29792 4.02633 3.75906 3.49589 3.23674 2.98163 2.73073
2.67374 2.84467 3.0087 13.6113 13.5358 13.3981 13.1991 12.9489 12.6732
12.4224 12.2846 12.3825 12.8261 13.6226 14.6165 15.5152 15.9939 15.8854
15.3042 14.5102 13.7075 12.9931 12.3959 11.9139 11.5281 11.1965 10.8446
10.3995 9.86473 9.3088 8.78539 8.31052 7.88024 7.48522 7.11662 6.76757
6.43316 6.11012 5.79632 5.49042 5.19156 4.89913 4.61264 4.33167 4.05582
3.78477 3.51827 3.2562 2.99855 2.7454 2.68738 2.8585 3.02267 13.4073
13.3018 13.1266 12.8754 12.5474 12.1541 11.7365 11.399 11.3364 11.7707
12.75 14.0271 15.1877 15.8507 15.8506 15.3257 14.5596 13.7723 13.0707
12.4905 12.0363 11.6955 11.4257 11.1257 10.6756 10.0842 9.46917 8.9063
8.40879 7.96571 7.56284 7.18859 6.83463 6.49544 6.16751 5.8487 5.53777
5.23399 4.93688 4.64604 4.36112 4.08173 3.80756 3.53831 3.27382 3.01402
2.75895 2.70009 2.87146 3.03579 13.1864 13.0556 12.8497 12.5548 12.1556
11.6402 11.0209 10.3949 10.0418 10.3834 11.5582 13.1368 14.5218 15.327
15.4521 15.053 14.3927 13.6803 13.0278 12.4808 12.0524 11.7371 11.4961
11.2211 10.7743 10.167 9.53638 8.96501 8.46407 8.01985 7.61636 7.24112
6.88542 6.5437 6.21255 5.89009 5.5753 5.26766 4.96688 4.67268 4.38475
4.10273 3.82627 3.55503 3.28877 3.02737 2.77081 2.71136 2.88307 3.04762
12.9669 12.8206 12.5993 12.2841 11.8482 11.2574 10.4875 9.60143 8.9353
9.15285 10.5265 12.3694 13.8823 14.7323 14.9251 14.6377 14.095 13.476
12.8861 12.3748 11.9598 11.637 11.3704 11.0709 10.637 10.0769 9.49239
8.95233 8.47082 8.03858 7.64238 7.27118 6.91717 6.57536 6.24289 5.9183
5.60096 5.29069 4.9874 4.69097 4.40115 4.11759 3.83985 3.56753 3.3003
3.03797 2.78048 2.72075 2.89288 3.05774 12.7629 12.6139 12.3981 12.0973
11.6841 11.1199 10.3696 9.47874 8.78375 9.00862 10.4408 12.2692 13.6569
14.3685 14.5008 14.2398 13.7665 13.2187 12.6815 12.1984 11.7852 11.4365
11.1223 10.7845 10.3682 9.87743 9.3663 8.8798 8.43284 8.02236 7.63987
7.27712 6.92797 6.58851 6.25664 5.93153 5.61306 5.30145 4.99692 4.69954
4.40912 4.12524 3.84739 3.57505 3.30777 3.04529 2.78752 2.72785 2.90053
3.06579 12.5821 12.4429 12.253 12.0016 11.6733 11.2493 10.7237 10.1693
9.87313 10.3238 11.5998 13.0199 13.9648 14.3312 14.2659 13.935 13.4674
12.9531 12.4483 11.9827 11.5664 11.1935 10.8425 10.4809 10.0822 9.64755
9.2015 8.76846 8.35958 7.97498 7.60987 7.25868 6.91699 6.58205 6.25262
5.92855 5.61035 5.29873 4.99429 4.69731 4.40765 4.12484 3.84818 3.57699
3.3107 3.04893 2.79158 2.73236 2.9057 3.07143 12.4258 12.3053 12.1545
11.9745 11.7683 11.5468 11.3455 11.2633 11.4969 12.2302 13.2997 14.1836
14.5563 14.4871 14.1616 13.7105 13.2082 12.6988 12.209 11.7528 11.3337
10.9457 10.5751 10.2043 9.8209 9.4245 9.02544 8.63537 8.26055 7.90134
7.55469 7.21677 6.88442 6.55583 6.23048 5.9089 5.59226 5.28186 4.97877
4.68355 4.3961 4.1158 3.84174 3.57298 3.30875 3.04862 2.79242 2.73404
2.90813 3.07442 12.2913 12.1925 12.0839 11.9774 11.8927 11.8628 11.9449
12.2311 12.8234 13.7093 14.5986 15.0694 15.0001 14.5934 14.0622 13.5093
12.9703 12.4571 11.9745 11.5243 11.1044 10.7094 10.3305 9.95853 9.58712
9.21572 8.84834 8.48978 8.14249 7.80582 7.47709 7.15315 6.83145 6.51068
6.19082 5.87298 5.55896 5.2508 4.95019 4.65801 4.37422 4.09794 3.82792
3.56288 3.30184 3.04424 2.78992 2.73275 2.90766 3.07454 12.175 12.0955
12.0224 11.9752 11.9825 12.0853 12.3381 12.8023 13.5055 14.349 15.0428
15.2741 15.0127 14.4775 13.8703 13.2813 12.7325 12.2234 11.749 11.3048
10.8866 10.4892 10.1076 9.73672 9.37372 9.01816 8.67146 8.33509 8.00908
7.69161 7.37964 7.06994 6.75993 6.44832 6.13521 5.82212 5.51156 5.20642
4.90917 4.62118 4.34238 4.07158 3.80701 3.54693 3.29011 3.03587 2.7841
2.72845 2.90418 3.07167 12.0745 12.0092 11.9601 11.95 12.0097 12.1768
12.4905 12.9771 13.6167 14.2933 14.7877 14.9031 14.6346 14.139 13.5718
13.0132 12.4879 11.9969 11.5356 11.0992 10.6836 10.2855 9.90222 9.53169
9.17303 8.82642 8.49248 8.17127 7.8615 7.56039 7.26424 6.96917 6.67205
6.37104 6.06603 5.75871 5.45227 5.15067 4.85742 4.5745 4.30186 4.0378
3.77986 3.52579 3.274 3.02378 2.77507 2.72118 2.89767 3.06569 11.9908
11.9345 11.8981 11.9045 11.9824 12.1616 12.4645 12.8917 13.4023 13.8965
14.2312 14.2948 14.0849 13.6918 13.2176 12.7267 12.2463 11.784 11.3396
10.9114 10.4977 10.0977 9.71086 9.33752 8.97848 8.63486 8.30748 7.99607
7.69879 7.41217 7.13163 6.85227 6.56981 6.2814 5.98626 5.686 5.38448
5.08687 4.79803 4.52077 4.25507 3.99857 3.74804 3.50056 3.25429 3.00845
2.76312 2.71105 2.88815 3.05657 11.9274 11.8772 11.8465 11.8562 11.9308
12.0927 12.3521 12.6964 13.0813 13.4314 13.6578 13.6977 13.5471 13.2525
12.8742 12.4576 12.028 11.5969 11.1689 10.7465 10.3313 9.9254 9.53067
9.14948 8.78437 8.43775 8.11134 7.80536 7.51795 7.24509 6.98109 6.71955
6.45454 6.18167 5.89903 5.60789 5.31263 5.01974 4.73567 4.46428 4.20567
3.95684 3.71371 3.47279 3.23196 2.99048 2.74857 2.69825 2.8757 3.04431
11.8885 11.8451 11.8187 11.8269 11.8899 12.0239 12.2323 12.4984 12.7831
13.032 13.1893 13.2175 13.111 12.8915 12.5916 12.2396 11.8552 11.4504
11.0334 10.6106 10.1876 9.7691 9.35972 8.96375 8.58551 8.22914 7.89794
7.59336 7.31402 7.05537 6.81022 6.57002 6.32652 6.07329 5.80695 5.52809
5.24143 4.9547 4.67597 4.41032 4.15817 3.9161 3.6794 3.44415 3.20809
2.97051 2.73178 2.68297 2.8604 3.02894 11.8774 11.8443 11.825 11.8337
11.8859 11.9929 12.1549 12.3559 12.5651 12.7442 12.8568 12.879 12.804
12.6394 12.3995 12.0986 11.7486 11.3602 10.9441 10.5109 10.0702 9.63002
9.19705 8.77746 8.37738 8.00312 7.66043 7.35294 7.08043 6.8377 6.61529
6.40149 6.1849 5.95654 5.71132 5.449 5.17441 4.89622 4.62385 4.36362
4.11656 3.87938 3.64721 3.41602 3.18353 2.94906 2.71303 2.66537 2.84237
3.0105 11.8946 11.8769 11.87 11.8845 11.9311 12.0172 12.1414 12.2907
12.4429 12.5721 12.6547 12.6749 12.6254 12.505 12.3145 12.0545 11.7279
11.3427 10.9131 10.4552 9.98385 9.51024 9.04291 8.58923 8.1569 7.75477
7.39219 7.0766 6.80994 6.58621 6.39229 6.21157 6.02834 5.83064 5.61171
5.37064 5.11222 4.84562 4.58114 4.32612 4.08259 3.84803 3.6181 3.38904
3.15867 2.92636 2.69249 2.64557 2.82169 2.98907 11.9382 11.9412 11.9526
11.9789 12.0267 12.0993 12.1947 12.3035 12.4116 12.5031 12.5647 12.587
12.5637 12.4876 12.347 12.1263 11.8144 11.4161 10.9528 10.4512 9.9329
9.41248 8.89909 8.40007 7.92388 7.48206 7.08909 6.75867 6.49694 6.29682
6.13911 5.99957 5.85654 5.69487 5.50664 5.29075 5.05211 4.80006 4.54522
4.29568 4.05465 3.82096 3.59138 3.36279 3.13332 2.90233 2.67015 2.6236
2.79841 2.96472 12.0045 12.0334 12.0689 12.1134 12.1691 12.2357 12.3103
12.387 12.4587 12.5191 12.5643 12.5923 12.6005 12.5793 12.5041 12.3341
12.0325 11.5996 11.0745 10.5042 9.92046 9.33953 8.76914 8.21458 7.68348
7.18955 6.75395 6.40033 6.14242 5.9719 5.85959 5.7696 5.67259 5.55048
5.39522 5.20642 4.98955 4.75402 4.51037 4.2671 4.02855 3.79512 3.56501
3.33605 3.10677 2.87663 2.64587 2.59944 2.77261 2.93759 12.0888 12.149
12.2147 12.2847 12.3558 12.4238 12.4841 12.5333 12.5713 12.6011 12.6291
12.6628 12.7079 12.7585 12.7796 12.6912 12.4023 11.9042 11.2798 10.6129
9.94584 9.29314 8.65816 8.04186 7.44889 6.89361 6.40448 6.01912 5.76359
5.62829 5.56917 5.53418 5.48527 5.40248 5.27908 5.11645 4.92105 4.7024
4.4708 4.23478 3.99956 3.76694 3.53656 3.30727 3.07815 2.84882 2.61947
2.57307 2.74436 2.90782 12.1859 12.283 12.3867 12.4911 12.5874 12.6651
12.7162 12.7388 12.7394 12.7317 12.7335 12.7643 12.8417 12.9723 13.1215
13.16 12.8953 12.2999 11.5436 10.7622 10.0022 9.27244 8.57137 7.89467
7.24209 6.62634 6.08168 5.66104 5.40607 5.30628 5.29952 5.31582 5.30931
5.25982 5.16303 5.02254 4.84598 4.64292 4.4232 4.19514 3.96438 3.73376
3.50409 3.2752 3.04672 2.81852 2.59084 2.54453 2.71381 2.87563 12.2891
12.4296 12.5807 12.732 12.8669 12.9655 13.012 13.004 12.9561 12.895
12.8522 12.8585 12.9428 13.1255 13.3826 13.5517 13.3288 12.6584 11.7999
10.9234 10.0763 9.27216 8.5111 7.78508 7.08834 6.42996 5.84609 5.39949
5.14342 5.06679 5.09392 5.14242 5.162 5.13321 5.05374 4.92878 4.76656
4.57638 4.36735 4.14728 3.92183 3.69442 3.46667 3.23917 3.0121 2.7856
2.55999 2.51392 2.68113 2.84125 12.3896 12.5796 12.7889 13.003 13.1954
13.3307 13.378 13.3307 13.2148 13.076 12.962 12.9122 12.9588 13.1221
13.379 13.5713 13.4031 12.8024 11.9769 11.067 10.1496 9.27963 8.47217
7.71713 7.00326 6.33523 5.74622 5.29677 5.03861 4.96014 4.98612 5.03475
5.05611 5.03098 4.95716 4.83971 4.68634 4.50545 4.30515 4.0924 3.87255
3.64916 3.42435 3.19921 2.97433 2.75014 2.52706 2.48146 2.64661 2.80501
12.4752 12.7183 12.9949 13.2886 13.562 13.7558 13.8113 13.7116 13.501
13.2553 13.0421 12.9057 12.8714 12.9465 13.0989 13.2114 13.1054 12.7091
12.0486 11.1601 10.1881 9.26934 8.43849 7.68124 6.98094 6.33802 5.77853
5.34961 5.08905 4.98497 4.97612 4.99393 4.99361 4.95572 4.87629 4.75854
4.60854 4.43318 4.23923 4.03262 3.8181 3.5991 3.37787 3.15581 2.9338
2.71246 2.49234 2.44741 2.61054 2.76725 12.5302 12.8237 13.1691 13.5519
13.9254 14.2003 14.273 14.1069 13.7757 13.4 13.0703 12.8312 12.696
12.6578 12.6834 12.7048 12.6404 12.4243 11.9373 11.1033 10.1239 9.20291
8.38629 7.65681 6.99591 6.40117 5.88994 5.49232 5.22958 5.09032 5.03117
5.00172 4.96548 4.90377 4.81047 4.6863 4.5351 4.36193 4.17201 3.97015
3.76034 3.54566 3.3283 3.10977 2.89109 2.67303 2.45621 2.41214 2.57328
2.72831 12.5374 12.8684 13.2685 13.7278 14.1957 14.5543 14.6475 14.4123
13.9587 13.4575 13.0195 12.6849 12.4553 12.3142 12.2321 12.1695 12.0836
11.9095 11.5041 10.7774 9.89772 9.05281 8.29672 7.62257 7.01771 6.47997
6.01955 5.65275 5.3888 5.21759 5.11036 5.03278 4.95735 4.86763 4.75635
4.62208 4.46655 4.293 4.10518 3.90673 3.70087 3.49021 3.27674 3.06194
2.84687 2.63235 2.41907 2.376 2.53519 2.68855 12.4823 12.8277 13.2496
13.741 14.2509 14.6479 14.7466 14.468 13.9428 13.3683 12.8631 12.4633
12.164 11.9447 11.7787 11.6362 11.4815 11.2562 10.8661 10.2667 9.54923
8.83203 8.16811 7.56634 7.02443 6.54299 6.12809 5.78759 5.52412 5.32928
5.18426 5.06634 4.95582 4.83929 4.70953 4.56384 4.40237 4.22683 4.03969
3.84356 3.64092 3.43388 3.22416 3.0131 2.80175 2.59094 2.38134 2.33933
2.4966 2.64831 12.3591 12.6907 13.0916 13.5522 14.0212 14.3757 14.4503
14.1763 13.6685 13.1035 12.5919 12.1692 11.8322 11.5625 11.3369 11.1292
10.9083 10.6316 10.251 9.75077 9.17336 8.58091 8.01338 7.48682 7.00657
6.57613 6.19977 5.88117 5.62011 5.40997 5.23832 5.09014 4.95159 4.81234
4.66595 4.50928 4.34149 4.16322 3.97591 3.78135 3.58132 3.3775 3.17131
2.96392 2.7563 2.54922 2.34336 2.30247 2.45782 2.60787 10.144 10.0506
9.94509 9.82603 9.6913 9.5385 9.36629 9.18027 9.00513 8.8782 8.79766
8.72385 8.63224 8.51829 8.38415 8.23266 8.0661 7.88627 7.69475 7.49314
7.28323 7.06706 6.84687 6.62498 6.40366 6.18497 5.97061 5.76179 5.55919
5.36297 5.17279 4.98794 4.80746 4.63024 4.45518 4.28121 4.1074 3.93293
3.75712 3.57942 3.39939 3.21674 3.03134 2.84325 2.65273 2.46031 2.26671
2.23087 2.38411 2.53142 10.3257 10.2354 10.1327 10.0165 9.8848 9.7358
9.569 9.3906 9.2227 9.09576 9.00808 8.92701 8.83045 8.71306 8.57596
8.42129 8.25089 8.06623 7.86872 7.65992 7.4417 7.2163 6.98626 6.75426
6.52297 6.29479 6.07172 5.85519 5.64603 5.44442 5.24999 5.06193 4.87913
4.70034 4.52426 4.34968 4.1755 4.00074 3.82458 3.64631 3.46535 3.28125
3.09374 2.90279 2.70868 2.512 2.31363 2.27592 2.43069 2.57898 10.5141
10.4279 10.3295 10.218 10.0924 9.95203 9.79815 9.63727 9.48474 9.35739
9.25387 9.15558 9.04694 8.92184 8.77937 8.62018 8.44515 8.25516 8.05125
7.83485 7.60783 7.37264 7.13212 6.88935 6.64741 6.40907 6.17666 5.95185
5.73559 5.52812 5.32903 5.13743 4.95206 4.77152 4.59435 4.41915 4.24468
4.06979 3.89349 3.71491 3.53327 3.34792 3.15843 2.96464 2.76679 2.56557
2.36207 2.32218 2.47823 2.62718 10.7091 10.6278 10.5346 10.4291 10.3111
10.1809 10.0408 9.89618 9.756 9.62803 9.51138 9.39695 9.27538 9.14123
8.99229 8.82782 8.64766 8.452 8.24141 8.01708 7.78091 7.53549 7.28402
7.02997 6.77684 6.52783 6.28557 6.05197 5.82812 5.61431 5.41012 5.21457
5.02629 4.84373 4.66526 4.48934 4.31453 4.13955 3.96323 3.78451 3.60239
3.41601 3.22467 3.02806 2.82635 2.62035 2.41138 2.36901 2.52604 2.67535
10.9105 10.8347 10.7473 10.6482 10.5378 10.4169 10.2878 10.1544 10.0216
9.89297 9.76791 9.64202 9.50992 9.36747 9.21206 9.0421 8.85661 8.65507
8.43762 8.20518 7.95961 7.70372 7.44101 7.17539 6.91079 6.65078 6.39832
6.15554 5.92368 5.70308 5.49333 5.29338 5.10176 4.91679 4.7367 4.55978
4.38446 4.20927 4.03289 3.85405 3.67155 3.48424 3.29116 3.09176 2.88613
2.67518 2.46053 2.41542 2.57315 2.72255 11.1181 11.0482 10.9668 10.874
10.7703 10.6569 10.5357 10.4092 10.2804 10.1509 10.0205 9.8869 9.74691
9.59746 9.43605 9.26066 9.06971 8.86217 8.63772 8.39706 8.14204 7.87562
7.60165 7.32444 7.04833 6.77727 6.51449 6.26233 6.02216 5.79439 5.57862
5.37376 5.1783 4.99042 4.80824 4.62991 4.45369 4.27798 4.10127 3.92213
3.73913 3.55084 3.35601 3.15384 2.94428 2.72836 2.50801 2.46007 2.61827
2.7676 11.332 11.2683 11.1928 11.1058 11.0079 10.9002 10.7842 10.6618
10.5348 10.4042 10.2699 10.1307 9.98452 9.82906 9.662 9.48114 9.28454
9.07077 8.83917 8.59024 8.32582 8.04905 7.76408 7.47558 7.18826 6.90638
6.63341 6.37187 6.12324 5.888 5.66579 5.45554 5.25566 5.06429 4.87943
4.69909 4.5214 4.34459 4.16703 3.98711 3.80319 3.61362 3.41687 3.21187
2.99847 2.77776 2.552 2.50134 2.65994 2.80921 11.5522 11.4949 11.4253
11.3436 11.2505 11.147 11.0344 10.9142 10.7875 10.6553 10.5176 10.3737
10.2221 10.061 9.88818 9.70152 9.49883 9.27841 9.03938 8.78213 8.50849
8.22175 7.9263 7.62713 7.32922 7.03706 6.7543 6.48359 6.2265 5.98362
5.75462 5.53847 5.3336 5.13807 4.9498 4.76671 4.58676 4.40806 4.22884
4.04733 3.86177 3.67032 3.47123 3.26325 3.04615 2.82109 2.59057 2.53761
2.69672 2.84617 11.779 11.7283 11.6645 11.5877 11.4986 11.3982 11.2876
11.1681 11.0409 10.9065 10.7653 10.6167 10.4597 10.2926 10.1136 9.92047
9.71091 9.48317 9.23628 8.97057 8.68792 8.39173 8.08658 7.77761 7.46999
7.16833 6.8764 6.59692 6.33155 6.08096 5.8449 5.62241 5.41192 5.21152
5.01905 4.8323 4.64914 4.46755 4.28563 4.1015 3.9133 3.71908 3.51704
3.30585 3.08527 2.85652 2.62219 2.5676 2.72751 2.87756 12.0126 11.9688
11.9107 11.8385 11.7528 11.6546 11.5451 11.4254 11.2967 11.1596 11.0145
10.8609 10.6981 10.5245 10.3384 10.1377 9.9202 9.6842 9.42879 9.15437
8.86289 8.55783 8.24381 7.92607 7.60977 7.29956 6.99923 6.71152 6.43817
6.17991 5.93659 5.70734 5.49065 5.28462 5.08705 4.89568 4.70825 4.52264
4.33685 4.14893 3.95696 3.75902 3.55333 3.33868 3.11488 2.88318 2.64618
2.59075 2.75184 2.90299 12.2532 12.2167 12.1645 12.0966 12.0138 11.9171
11.8079 11.6873 11.5565 11.4163 11.2669 11.108 10.9388 10.758 10.5637
10.3542 10.1275 9.88212 9.61734 9.33377 9.03348 8.72001 8.39793 8.07238
7.74844 7.43065 7.12272 6.82739 6.54641 6.28058 6.02987 5.79348 5.57001
5.35758 5.15401 4.95698 4.76418 4.5734 4.38257 4.18972 3.99293 3.79039
3.58048 3.36218 3.13545 2.90155 2.66292 2.60739 2.76999 2.9227 12.501
12.4723 12.426 12.3623 12.282 12.1863 12.0767 11.9548 11.8218 11.6783
11.5246 11.3602 11.1843 10.9955 10.7922 10.5727 10.3354 10.0792 9.80401
9.51061 9.20129 8.87959 8.54999 8.21739 7.88666 7.56211 7.24731 6.94492
6.65666 6.3834 6.12517 5.8813 5.65048 5.43089 5.2204 5.01669 4.81743
4.62039 4.42348 4.22473 4.02231 3.81453 3.60004 3.37805 3.14868 2.91316
2.6737 2.61859 2.78288 2.93747 12.7556 12.7352 12.6951 12.6353 12.5571
12.4619 12.3518 12.2285 12.0934 11.9471 11.7896 11.6202 11.4378 11.2408
11.0277 10.797 10.5478 10.2794 9.99247 9.68822 9.36925 9.03911 8.70211
8.36284 8.02582 7.69507 7.37392 7.06486 6.7696 6.48898 6.22313 5.97144
5.73271 5.50524 5.28694 5.07558 4.86887 4.66462 4.46076 4.25538 4.04678
3.83343 3.61423 3.38861 3.15685 2.9201 2.68029 2.62586 2.79187 2.94845
13.016 13.0046 12.9707 12.9147 12.8381 12.7431 12.6324 12.508 12.3717
12.2239 12.0642 11.8913 11.7034 11.4987 11.2755 11.0328 10.7701 10.4879
10.1875 9.87099 9.54125 9.20195 8.85715 8.51111 8.16789 7.83112 7.50381
7.18828 6.8861 6.59812 6.32446 6.06461 5.81746 5.58141 5.35452 5.13464
4.91963 4.70737 4.4959 4.28342 4.06832 3.84929 3.62539 3.39628 3.16229
2.92448 2.68451 2.6308 2.79841 2.95692 13.2802 13.2783 13.2506 13.1979
13.1224 13.0273 12.9161 12.7918 12.6562 12.5095 12.3506 12.1772 11.9863
11.7754 11.5424 11.2868 11.009 10.7109 10.3948 10.0639 9.72166 9.37187
9.01837 8.66493 8.31512 7.97209 7.63848 7.31636 7.00713 6.7116 6.42988
6.16151 5.90545 5.66023 5.42406 5.19497 4.97096 4.75009 4.53055 4.31064
4.08891 3.86419 3.6357 3.40319 3.16702 2.92813 2.68794 2.63483 2.80384
2.96411 13.5445 13.5523 13.5306 13.4805 13.4053 13.3098 13.1988 13.0764
12.9448 12.8039 12.6512 12.4825 12.293 12.0785 11.8367 11.5672 11.2721
10.955 10.6201 10.2719 9.91477 9.55261 9.18898 8.8271 8.46988 8.11994
7.77948 7.45029 7.13361 6.83014 6.53999 6.2627 5.99729 5.74242 5.49645
5.25762 5.02413 4.79424 4.56631 4.3388 4.11038 3.87998 3.64693 3.41103
3.17261 2.93249 2.69185 2.63912 2.80929 2.97107 13.8025 13.82 13.8035
13.7548 13.6789 13.5825 13.4729 13.3556 13.2334 13.1056 12.9676 12.8123
12.6314 12.4182 12.1689 11.8841 11.5682 11.2274 10.8691 10.4997 10.1244
9.74752 9.37197 9.00025 8.63448 8.27659 7.92833 7.59121 7.26633 6.9543
6.6552 6.36855 6.09341 5.82854 5.57243 5.32353 5.08027 4.84112 4.60462
4.3694 4.13423 3.89814 3.66049 3.4211 3.18024 2.93859 2.69716 2.64451
2.81561 2.97865 14.0451 14.0714 14.0585 14.0094 13.931 13.8334 13.7267
13.6191 13.5144 13.4109 13.3012 13.1731 13.0124 12.8076 12.5529 12.25
11.9071 11.5356 11.1471 10.751 10.3537 9.95926 9.56991 9.18689 8.8112
8.44398 8.08652 7.74015 7.40591 7.08441 6.77567 6.47917 6.19397 5.91887
5.65247 5.39339 5.14027 4.89177 4.64663 4.40362 4.16162 3.91973 3.67735
3.43425 3.19066 2.94712 2.70447 2.65159 2.82342 2.98743 14.2595 14.2925
14.2806 14.2281 14.145 14.0452 13.9434 13.8514 13.7753 13.7126 13.6517
13.5722 13.4503 13.2652 13.0071 12.6802 12.3 11.8865 11.4581 11.0281
10.6042 10.1896 9.78497 9.38945 9.00247 8.62419 8.25558 7.89803 7.55278
7.2205 6.90122 6.59433 6.29879 6.01335 5.73668 5.46748 5.20455 4.94675
4.69297 4.44213 4.19322 3.94538 3.69804 3.45095 3.20426 2.95841 2.7141
2.66068 2.83303 2.99778 14.4293 14.4653 14.4505 14.3905 14.2991 14.1952
14.0997 14.0301 13.9965 13.9972 14.015 14.0177 13.9637 13.8157 13.5559
13.1936 12.7583 12.2852 11.8033 11.3307 10.8757 10.4394 10.0191 9.61075
9.21128 8.81974 8.43719 8.06565 7.70698 7.36219 7.03125 6.71335 6.40724
6.11147 5.82466 5.54554 5.27301 5.00605 4.74371 4.48503 4.22911 3.97516
3.72261 3.47123 3.22108 2.97251 2.72609 2.67183 2.84454 3.00982 14.5372
14.5704 14.5468 14.4736 14.3684 14.2563 14.166 14.1238 14.1478 14.2401
14.3788 14.514 14.5744 14.4907 14.2292 13.81 13.2902 12.7316 12.1786
11.6542 11.1651 10.708 10.2744 9.85465 9.44192 9.03407 8.63328 8.24351
7.86807 7.50846 7.16452 6.83499 6.51812 6.21214 5.91545 5.62671 5.34487
5.06899 4.79824 4.53178 4.26881 4.00861 3.75066 3.49472 3.24079 2.98914
2.74023 2.68488 2.85784 3.02345 14.5675 14.59 14.5501 14.456 14.3287
14.1995 14.107 14.0908 14.1833 14.3974 14.7105 15.0505 15.2974 15.3209
15.0542 14.5404 13.8915 13.2136 12.5705 11.9873 11.4653 10.9933 10.5536
10.1272 9.70104 9.27196 8.84591 8.43142 8.03451 7.65728 7.29893 6.95723
6.62961 6.31366 6.00745 5.70951 5.41872 5.13424 4.85531 4.5812 4.31123
4.04477 3.78133 3.52067 3.26275 3.00778 2.75611 2.6995 2.8726 3.03842