# vtk DataFile Version 3.0
vtk output
ASCII
DATASET RECTILINEAR_GRID
FIELD FieldData 2
base_index 1 3 int
0 0 0
avtOriginalBounds 1 6 double
-10 10 -10 10 -10 10
DIMENSIONS 50 50 50
X_COORDINATES 50 float
-10 -9.59184 -9.18367 -8.77551 -8.36735 -7.95918 -7.55102 -7.14286 -6.73469
-6.32653 -5.91837 -5.5102 -5.10204 -4.69388 -4.28571 -3.87755 -3.46939 -3.06122
-2.65306 -2.2449 -1.83673 -1.42857 -1.02041 -0.612245 -0.204082 0.204082 0.612245
1.02041 1.42857 1.83673 2.2449 2.65306 3.06122 3.46939 3.87755 4.28572
4.69388 5.10204 5.5102 5.91837 6.32653 6.73469 7.14286 7.55102 7.95918
8.36735 8.77551 9.18367 9.59184 10
Y_COORDINATES 50 float
-10 -9.59184 -9.18367 -8.77551 -8.36735 -7.95918 -7.55102 -7.14286 -6.73469
-6.32653 -5.91837 -5.5102 -5.10204 -4.69388 -4.28571 -3.87755 -3.46939 -3.06122
-2.65306 -2.2449 -1.83673 -1.42857 -1.02041 -0.612245 -0.204082 0.204082 0.612245
1.02041 1.42857 1.83673 2.2449 2.65306 3.06122 3.46939 3.87755 4.28572
4.69388 5.10204 5.5102 5.91837 6.32653 6.73469 7.14286 7.55102 7.95918
8.36735 8.77551 9.18367 9.59184 10
Z_COORDINATES 50 float
-10 -9.59184 -9.18367 -8.77551 -8.36735 -7.95918 -7.55102 -7.14286 -6.73469
-6.32653 -5.91837 -5.5102 -5.10204 -4.69388 -4.28571 -3.87755 -3.46939 -3.06122
-2.65306 -2.2449 -1.83673 -1.42857 -1.02041 -0.612245 -0.204082 0.204082 0.612245
1.02041 1.42857 1.83673 2.2449 2.65306 3.06122 3.46939 3.87755 4.28572
4.69388 5.10204 5.5102 5.91837 6.32653 6.73469 7.14286 7.55102 7.95918
8.36735 8.77551 9.18367 9.59184 10
CELL_DATA 117649
POINT_DATA 125000
SCALARS temp float
LOOKUP_TABLE default
6.25602 6.13371 6.00361 5.86525 5.71815 5.56208 5.39791 5.22963 5.06629
4.91745 4.7816 4.64755 4.50664 4.3561 4.19616 4.02793 3.85259 3.67125
3.48496 3.29476 3.10172 2.90692 2.71139 2.51612 2.32196 2.31081 2.48064
2.64997 2.81951 2.98984 3.16148 3.33477 3.50987 3.68675 3.86522 4.0449
4.2253 4.40576 4.58549 4.76357 4.93896 5.11049 5.27694 5.43708 5.58979
5.73416 5.86954 5.99564 6.11248 6.22034 6.36515 6.24345 6.11375 5.97565
5.82876 5.67302 5.50948 5.34204 5.17888 5.02818 4.88856 4.7503 4.60551
4.45139 4.2879 4.11597 3.93662 3.7509 3.55985 3.36453 3.16608 2.96569
2.76454 2.56373 2.36425 2.35127 2.52241 2.69303 2.86391 3.03579 3.20928
3.38479 3.56255 3.74259 3.92472 4.10858 4.29362 4.47916 4.66432 4.84806
5.02915 5.20622 5.37776 5.54228 5.69841 5.84507 5.98155 6.10759 6.22338
6.32938 6.47806 6.3575 6.2289 6.09201 5.94674 5.79336 5.63325 5.46987
5.30914 5.15612 5.00982 4.86386 4.71246 4.55292 4.38475 4.20838 4.02454
3.83409 3.63797 3.43725 3.23312 3.02686 2.81979 2.61317 2.40809 2.39313
2.56554 2.73736 2.90951 3.08284 3.25807 3.43571 3.61606 3.79919 3.98496
4.173 4.36277 4.55353 4.74432 4.93399 5.1211 5.30403 5.48097 5.65007
5.80967 5.95848 6.09574 6.22129 6.33548 6.43908 6.59467 6.47569 6.34869
6.21362 6.07066 5.9204 5.7643 5.60507 5.44636 5.29084 5.13785 4.98383
4.82507 4.65934 4.48584 4.30455 4.11587 3.9204 3.71897 3.51262 3.30257
3.09021 2.87699 2.66431 2.45341 2.43636 2.61003 2.78302 2.95637 3.13106
3.30791 3.48755 3.67036 3.85646 4.04576 4.23791 4.43236 4.62834 4.82484
5.02055 5.21386 5.40284 5.58534 5.75911 5.92214 6.0729 6.21059 6.33518
6.44728 6.54798 6.71482 6.59773 6.47262 6.33958 6.19898 6.05155 5.89861
5.74208 5.5841 5.42603 5.26746 5.1065 4.94093 4.76908 4.59009 4.40367
4.20991 4.00922 3.8023 3.59014 3.374 3.15538 2.93585 2.71695 2.50007
2.48087 2.65582 2.82997 3.00447 3.18044 3.35881 3.54031 3.72539 3.91427
4.10688 4.30292 4.50186 4.70289 4.90494 5.10658 5.30602 5.50102 5.68904
5.8674 6.03369 6.18614 6.32391 6.44713 6.55675 6.65422 6.83837 6.72337
6.60022 6.46914 6.33056 6.18523 6.03422 5.87888 5.72051 5.55983 5.39666
5.22996 5.05842 4.88085 4.69646 4.50482 4.30586 4.0998 3.88725 3.66917
3.44685 3.22187 2.99594 2.77076 2.54782 2.52648 2.70277 2.87811 3.05377
3.23096 3.41072 3.59389 3.78103 3.9724 4.16802 4.36761 4.57064 4.77631
4.98349 5.19066 5.39582 5.59646 5.78964 5.97225 6.14148 6.29529 6.43283
6.55445 6.66144 6.75562 6.96519 6.85239 6.7312 6.60185 6.46481 6.32078
6.17063 6.01534 5.85577 5.6924 5.52518 5.35355 5.17668 4.99375 4.80407
4.60717 4.40289 4.19134 3.97305 3.74896 3.52042 3.28909 3.05679 2.82534
2.59636 2.57293 2.75068 2.92729 3.10413 3.2825 3.46355 3.64821 3.83713
4.03065 4.22885 4.43148 4.63804 4.8477 5.05929 5.27119 5.48126 5.68673
5.88432 6.07052 6.24216 6.39697 6.53411 6.65412 6.75865 6.84986 7.0952
6.9847 6.86538 6.73752 6.60156 6.45815 6.30802 6.15197 5.99065 5.82445
5.65341 5.47723 5.29539 5.10728 4.91231 4.71006 4.50029 4.28309 4.05895
3.82881 3.59406 3.35644 3.11788 2.88029 2.64538 2.61999 2.79934 2.97734
3.15542 3.33496 3.5172 3.70316 3.89355 4.08882 4.28907 4.49411 4.70343
4.91618 5.13116 5.34666 5.56041 5.76946 5.97028 6.15907 6.33239 6.48782
6.62454 6.74326 6.84587 6.93482 7.22835 7.12022 7.00273 6.87612 6.74085
6.59752 6.44683 6.28945 6.12597 5.95675 5.78192 5.60132 5.41459 5.22129
5.02092 4.8131 4.59761 4.37454 4.1444 3.90816 3.66724 3.42346 3.17881
2.93526 2.69459 2.66741 2.84856 3.0281 3.20752 3.38825 3.5716 3.75866
3.95022 4.14678 4.3485 4.55519 4.76635 4.98112 5.19822 5.41589 5.63177
5.84281 6.04534 6.23544 6.40956 6.56525 6.70168 6.81968 6.92125 7.00896
7.36457 7.25894 7.14323 7.0177 6.88281 6.73917 6.58746 6.42836 6.26243
6.09004 5.91136 5.72631 5.53465 5.33601 5.13 4.9163 4.69477 4.46555
4.22921 3.98676 3.73971 3.48988 3.23933 2.99006 2.74385 2.71509 2.89823
3.07949 3.26037 3.44234 3.62675 3.81472 4.00713 4.20451 4.40706 4.6146
4.8266 5.04218 5.26001 5.47828 5.69459 5.90585 6.10844 6.29847 6.47248
6.62807 6.76445 6.88242 6.98397 7.07161 7.50373 7.40074 7.28682 7.16224
7.0275 6.88326 6.73025 6.56918 6.40064 6.22501 6.04245 5.85293 5.65623
5.45207 5.24012 5.02017 4.79219 4.55645 4.31362 4.06481 3.81157 3.55579
3.2995 3.04471 2.79318 2.76302 2.94837 3.13155 3.31404 3.49731 3.68273
3.87147 4.06443 4.26216 4.46489 4.67244 4.88427 5.09945 5.31663 5.53396
5.74904 5.95886 6.15995 6.34864 6.52169 6.67686 6.81339 6.93199 7.03446
7.12315 7.64553 7.54536 7.43327 7.30956 7.1748 7.02976 6.87531 6.7122
6.54107 6.36228 6.17598 5.98208 5.78036 5.57052 5.35235 5.12574 4.89084
4.64811 4.39839 4.14294 3.88338 3.62162 3.35967 3.09948 2.84276 2.81139
2.99915 3.18443 3.36867 3.55333 3.73976 3.92913 4.12235 4.31999 4.52229
4.72906 4.93976 5.15343 5.3687 5.58373 5.79618 6.00319 6.20152 6.38785
6.55925 6.71372 6.85052 6.9702 7.07429 7.16487 7.7894 7.69226 7.58205
7.45913 7.32423 7.17831 7.0224 6.85739 6.68395 6.50241 6.3128 6.1149
5.90836 5.69287 5.46826 5.23458 4.99222 4.74192 4.48478 4.22225 3.95606
3.68814 3.42045 3.15487 2.89301 2.86052 3.05086 3.23841 3.42455 3.61068
3.79811 3.988 4.18125 4.37842 4.57973 4.78503 4.99375 5.20496 5.41728
5.62894 5.8377 6.04091 6.23562 6.4189 6.58818 6.74169 6.87873 6.99968
7.10577 7.19873 7.93433 7.8404 7.7321 7.6099 7.47477 7.32797 7.17079
7.0043 6.82923 6.64578 6.45377 6.25269 6.04195 5.82108 5.58994 5.34879
5.09835 4.83974 4.57444 4.30418 4.03084 3.75637 3.4827 3.21155 2.94445
2.91086 3.10391 3.29386 3.482 3.66967 3.85812 4.04845 4.24152 4.43789
4.63779 4.84104 5.04711 5.25511 5.46372 5.67126 5.87565 6.07445 6.26506
6.44489 6.61175 6.76409 6.90123 7.0234 7.13153 7.22701 8.07866 7.98808
7.88165 7.76005 7.62459 7.477 7.31895 7.15181 6.9763 6.79247 6.59969
6.39695 6.18319 5.95761 5.72004 5.471 5.21167 4.94376 4.66928 4.39035
4.10908 3.82747 3.54735 3.27032 2.99771 2.96295 3.15879 3.3512 3.54141
3.73065 3.9201 4.1108 4.30356 4.4989 4.69704 4.89783 5.10079 5.30508
5.50949 5.71246 5.9121 6.10622 6.29252 6.46876 6.63303 6.78399 6.921
7.04414 7.1541 7.25196 8.21986 8.13264 8.0279 7.90664 7.77072 7.62251
7.46429 7.2978 7.12383 6.94206 6.75121 6.54936 6.33458 6.1055 5.8618
5.60434 5.33503 5.05642 4.77132 4.48244 4.19218 3.90259 3.61539 3.33197
3.05345 3.01735 3.21599 3.41088 3.60314 3.79393 3.98434 4.17535 4.36769
4.56186 4.75805 4.95614 5.15572 5.35602 5.55599 5.75422 5.949 6.13839
6.32036 6.49298 6.65458 6.80397 6.94057 7.06432 7.17572 7.27558 8.35428
8.27014 8.16668 8.04532 7.9087 7.7601 7.60269 7.43881 7.26931 7.0934
6.90866 6.71173 6.49917 6.26855 6.01922 5.75256 5.4716 5.18026 4.88255
4.58199 4.28138 3.9828 3.68775 3.39731 3.11234 3.07465 3.27603 3.4733
3.66751 3.85974 4.05102 4.24225 4.43411 4.62704 4.82122 5.01655 5.21268
5.40897 5.60447 5.79797 5.98795 6.1727 6.35045 6.51948 6.67835 6.826
6.96185 7.0858 7.19815 7.29953 8.47693 8.39524 8.29226 8.17002 8.03222
7.88343 7.7281 7.56946 7.40862 7.24407 7.07176 6.88594 6.68064 6.45148
6.19721 5.92003 5.62486 5.3178 5.0047 4.69025 4.37766 4.06895 3.76522
3.46711 3.17507 3.13543 3.33941 3.53885 3.73476 3.9282 4.12018 4.31153
4.50287 4.69457 4.88679 5.07945 5.27224 5.46463 5.65583 5.84477 6.03013
6.21043 6.38408 6.54959 6.70568 6.85139 6.98618 7.10988 7.22266 7.32499
8.58153 8.50106 8.39724 8.27287 8.133 7.98397 7.83204 7.68188 7.53518
7.38969 7.23902 7.07365 6.88329 6.66015 6.40175 6.11175 5.79831 5.47115
5.13891 4.8078 4.48148 4.16158 3.8485 3.54213 3.24236 3.20035 3.40666
3.60785 3.80502 3.99929 4.19167 4.38297 4.57374 4.76427 4.95468 5.14487
5.33458 5.52335 5.71052 5.89518 6.07619 6.25224 6.42196 6.58402 6.73727
6.88087 7.01427 7.13728 7.24999 7.3527 8.66088 8.57965 8.47296 8.34449
8.20095 8.05093 7.90324 7.76487 7.63888 7.52255 7.40645 7.2753 7.11157
6.90126 6.63958 6.33279 5.99479 5.64128 5.28506 4.93423 4.59258 4.26085
3.93818 3.62324 3.31512 3.27018 3.47832 3.68057 3.87825 4.07272 4.26507
4.45608 4.64621 4.83568 5.02448 5.21249 5.39945 5.58496 5.76846 5.94917
6.12613 6.29819 6.46415 6.62283 6.77322 6.91455 7.04629 7.16823 7.28038
7.38295 8.70774 8.62294 8.5105 8.37502 8.22499 8.07173 7.92755 7.80314
7.70446 7.62937 7.565 7.48773 7.36803 7.18074 6.9166 6.58657 6.21478
5.82665 5.44083 5.06738 4.70958 4.36642 4.03485 3.71159 3.39458 3.34592
3.55499 3.75709 3.95414 4.14789 4.3396 4.53 4.71943 4.90792 5.09536
5.28151 5.46609 5.64874 5.82897 6.00611 6.17934 6.34767 6.51007 6.66549
6.81303 6.95199 7.08187 7.20243 7.31363 7.41561 8.71628 8.62434 8.50244
8.35581 8.19462 8.03321 7.88839 7.77659 7.70943 7.68776 7.69582 7.69872
7.64794 7.49861 7.23297 6.87047 6.45298 6.0209 5.60029 5.20264 4.82959
4.47723 4.13911 3.80883 3.48249 3.42884 3.63717 3.83712 4.03181 4.22363
4.41396 4.60343 4.79209 4.97973 5.16604 5.35067 5.53326 5.71344 5.89079
6.06474 6.23459 6.39951 6.55858 6.71092 6.8557 6.99228 7.12019 7.23917
7.34914 7.45019 8.68377 8.58073 8.44499 8.28185 8.10246 7.92385 7.76821
7.66043 7.62222 7.66208 7.76345 7.87733 7.92728 7.83632 7.57168 7.1671
6.69281 6.21 5.75261 5.33221 4.94761 4.59105 4.25136 3.91708 3.58111
3.5202 3.72475 3.91948 4.10951 4.29798 4.48625 4.67452 4.86244 5.04942
5.23488 5.41829 5.59923 5.77733 5.95218 6.12332 6.29017 6.45202 6.60809
6.7576 6.89981 7.03413 7.16009 7.27743 7.38602 7.4859 8.6119 8.49407
8.34016 8.15443 7.94745 7.73749 7.552 7.42738 7.40248 7.5015 7.71071
7.96335 8.14559 8.1361 7.8805 7.43301 6.90154 6.37103 5.88206 5.44506
5.05587 4.70315 4.37027 4.03765 3.69193 3.61975 3.81555 4.00096 4.18391
4.36793 4.5538 4.74094 4.92833 5.11494 5.29984 5.48236 5.66197 5.83831
6.01103 6.17976 6.344 6.50319 6.65666 6.80371 6.94367 7.07597 7.20016
7.31593 7.42313 7.52176 8.50708 8.37208 8.19692 7.9833 7.73865 7.47908
7.23466 7.05535 7.00779 7.14705 7.46728 7.87394 8.20516 8.29381 8.0668
7.59966 7.03474 6.47663 5.97109 5.52832 5.14324 4.80338 4.48772 4.16517
3.81016 3.72116 3.90232 4.07498 4.2497 4.42933 4.61329 4.79988 4.98729
5.17396 5.35868 5.5406 5.71919 5.89409 6.06503 6.23173 6.39382 6.55083
6.70219 6.84727 6.98543 7.11611 7.23884 7.35328 7.45924 7.55667 8.37957
8.22734 8.03077 7.78751 7.49869 7.17275 6.8352 6.5467 6.41579 6.55898
6.98901 7.55646 8.03198 8.21953 8.04912 7.61037 7.0587 6.50727 6.00677
5.57053 5.19608 4.87312 4.57959 4.27314 3.91133 3.80395 3.96955 4.13106
4.29995 4.47737 4.66113 4.84842 5.03672 5.22405 5.409 5.59067 5.76851
5.94226 6.11176 6.27685 6.43729 6.59269 6.74255 6.88627 7.02323 7.15283
7.27457 7.38805 7.49304 7.58947 8.24148 8.07504 7.86139 7.59361 7.26453
6.86947 6.41843 5.97002 5.68311 5.78591 6.33568 7.07683 7.6798 7.94795
7.84678 7.47497 6.97775 6.46377 5.98705 5.56619 5.20304 4.89045 4.60781
4.30977 3.94749 3.8352 3.99772 4.1583 4.32822 4.5078 4.69411 4.88385
5.07415 5.26286 5.44851 5.63023 5.8076 5.98049 6.1489 6.31284 6.47217
6.6266 6.77568 6.91881 7.0553 7.18451 7.30586 7.41889 7.52333 7.61905
8.1043 7.92969 7.70822 7.42988 7.0808 6.64354 6.10775 5.51433 5.05689
5.10023 5.77016 6.66341 7.34159 7.63955 7.57915 7.26872 6.83343 6.36725
5.92192 5.51893 5.16307 4.84877 4.55742 4.25208 3.89716 3.80121 3.97928
4.15242 4.33167 4.51833 4.71015 4.90412 5.09754 5.28832 5.47512 5.6572
5.83434 6.00663 6.1743 6.33754 6.49638 6.6506 6.79974 6.94313 7.08003
7.20966 7.33135 7.44456 7.54894 7.64436 7.97681 7.80186 7.58512 7.31693
6.98275 6.56242 6.03911 5.44387 4.97112 5.01986 5.72321 6.60947 7.22238
7.45091 7.36371 7.07112 6.6742 6.2457 5.82791 5.44024 5.08767 4.76522
4.45798 4.14209 3.79871 3.72595 3.92642 4.11878 4.31225 4.50921 4.7086
4.90813 5.1055 5.2989 5.48718 5.66984 5.84693 6.01884 6.1861 6.34913
6.50814 6.66296 6.81309 6.95777 7.09606 7.22705 7.3499 7.46399 7.5689
7.66446 7.86378 7.69611 7.49632 7.25902 6.97631 6.63874 6.24533 5.84046
5.58765 5.75273 6.3585 7.01388 7.38521 7.43155 7.24438 6.91977 6.52917
6.12018 5.72072 5.34403 4.99322 4.66394 4.34584 4.02548 3.69392 3.63924
3.85734 4.06713 4.27478 4.48258 4.69011 4.89569 5.09741 5.2937 5.48365
5.667 5.84412 6.01576 6.18284 6.34612 6.50598 6.66231 6.81449 6.96155
7.10233 7.23569 7.36061 7.47633 7.58238 7.67858 7.76611 7.61096 7.43609
7.24263 7.03307 6.81434 6.60749 6.46877 6.50663 6.81501 7.29031 7.64076
7.69805 7.51243 7.19144 6.80831 6.40351 6.00001 5.61074 5.24153 4.89277
4.56071 4.23865 3.91927 3.59818 3.5551 3.78353 4.0054 4.22415 4.44119
4.65611 4.86743 5.07341 5.27261 5.46423 5.64822 5.82527 5.9966 6.16362
6.32752 6.48892 6.64771 6.80308 6.95373 7.09817 7.23494 7.36282 7.48093
7.58873 7.68605 7.68209 7.54122 7.39287 7.24441 7.10744 7.00083 6.95656
7.0246 7.25734 7.63923 8.00229 8.11792 7.93277 7.56756 7.14094 6.7084
6.28819 5.88581 5.50298 5.13958 4.7938 4.46226 4.14064 3.82485 3.51252
3.47635 3.70929 3.93787 4.16378 4.3875 4.60828 4.82451 5.03437 5.2363
5.42945 5.61387 5.79058 5.96135 6.12824 6.29302 6.45662 6.61886 6.77861
6.93409 7.08334 7.22455 7.35624 7.47741 7.5875 7.68636 7.60935 7.48124
7.35528 7.24306 7.1611 7.1321 7.18554 7.35269 7.64337 7.99565 8.24578
8.22819 7.93939 7.50744 7.04353 6.59516 6.17291 5.7754 5.39935 5.04174
4.69974 4.37052 4.05127 3.73966 3.43434 3.40182 3.63514 3.86612 4.09555
4.3233 4.54822 4.76839 4.98167 5.18615 5.38068 5.56527 5.74121 5.91096
6.07746 6.24326 6.40964 6.57629 6.74157 6.90305 7.05817 7.20468 7.34088
7.46564 7.57843 7.67916 7.54657 7.42785 7.31714 7.22781 7.17733 7.18614
7.27432 7.45308 7.70628 7.96461 8.10594 8.02837 7.73945 7.3319 6.89193
6.46206 6.05428 5.66839 5.3013 4.95001 4.61212 4.28564 3.96896 3.66091
3.36081 3.32949 3.56011 3.79013 4.02008 4.24955 4.47709 4.70043 4.9169
5.124 5.32001 5.50465 5.67945 5.84766 6.01339 6.18019 6.34982 6.52173
6.69351 6.86189 7.02362 7.176 7.31709 7.44574 7.56143 7.66422 7.49427
7.38161 7.2792 7.20031 7.16099 7.17714 7.25916 7.40404 7.58497 7.74351
7.80089 7.70066 7.44872 7.10001 6.71209 6.31975 5.93718 5.56781 5.21123
4.86626 4.53188 4.20736 3.89226 3.58634 3.28953 3.25723 3.48255 3.70887
3.93688 4.16624 4.39536 4.62158 4.84156 5.0519 5.25005 5.43515 5.60884
5.77524 5.93987 6.10761 6.28075 6.45837 6.63715 6.8128 6.98133 7.13962
7.28557 7.41803 7.53659 7.64143 7.45462 7.34617 7.24765 7.17108 7.13017
7.13648 7.1937 7.29183 7.40331 7.48436 7.48658 7.379 7.16433 6.87221
6.53766 6.18613 5.83135 5.4794 5.13278 4.79271 4.46005 4.13558 3.82004
3.51412 3.21841 3.18288 3.40033 3.62041 3.84441 4.07232 4.30258 4.53207
4.75661 4.97169 5.17355 5.36048 5.53399 5.69902 5.86267 6.03129 6.20784
6.39097 6.57636 6.75875 6.93344 7.09698 7.2472 7.383 7.5041 7.61078
7.43033 7.32635 7.23061 7.15335 7.10572 7.09589 7.12395 7.17811 7.23454
7.26183 7.22978 7.12031 6.9337 6.68501 6.39415 6.0779 5.74756 5.41018
5.0705 4.73212 4.39798 4.07046 3.75152 3.44278 3.14555 3.10419 3.31088
3.52208 3.74012 3.96569 4.19727 4.43122 4.66227 4.88453 5.09279 5.2842
5.45982 5.62518 5.78876 5.95839 6.13772 6.32516 6.51559 6.703 6.88222
7.04959 7.20293 7.34119 7.46419 7.57235 7.42336 7.32586 7.2345 7.15749
7.10334 7.07761 7.07885 7.09628 7.11118 7.10142 7.04753 6.93796 6.77133
6.55425 6.29662 6.00787 5.69588 5.36756 5.02947 4.68767 4.34733 4.01251
3.68632 3.37123 3.0693 3.01893 3.21131 3.41056 3.62067 3.84334 4.07713
4.31755 4.5579 4.79063 5.00892 5.2086 5.39001 5.55879 5.72424 5.89529
6.07631 6.26585 6.4586 6.64827 6.82953 6.99867 7.1535 7.29305 7.41714
7.52625 7.4341 7.34601 7.26204 7.18818 7.13036 7.09196 7.07096 7.05884
7.04202 7.00552 6.93675 6.82801 6.6769 6.48457 6.25344 5.98598 5.68584
5.35931 5.01519 4.66282 4.31004 3.9626 3.62454 3.29894 2.98852 2.92524
3.09886 3.28239 3.48236 3.70198 3.93969 4.18946 4.44253 4.68937 4.92156
5.1337 5.32523 5.50134 5.67136 5.84463 6.02616 6.21522 6.40706 6.59576
6.77621 6.94479 7.09935 7.23886 7.36316 7.47266 7.46136 7.38579 7.31255
7.24533 7.18747 7.14041 7.10202 7.06623 7.02427 6.96709 6.88742 6.78067
6.64425 6.47554 6.26998 6.02162 5.72777 5.39398 5.03347 4.661 4.28804
3.92187 3.56689 3.22628 2.90315 2.82237 2.9718 3.13492 3.3223 3.53932
3.78365 4.04647 4.31592 4.58017 4.82941 5.05733 5.26261 5.44961 5.6269
5.80351 5.98493 6.1715 6.35973 6.54468 6.72181 6.88777 7.04043 7.17874
7.30242 7.41181 7.50281 7.44283 7.38368 7.32668 7.27259 7.2209 7.16935
7.11414 7.05092 6.976 6.88719 6.78352 6.66374 6.52311 6.34974 6.1248
5.83353 5.48066 5.08938 4.68466 4.28267 3.89147 3.5148 3.15504 2.81507
2.71204 2.8313 2.96871 3.14101 3.35669 3.61138 3.89137 4.18036 4.46405
4.73169 4.97673 5.19745 5.39734 5.58376 5.7649 5.9464 6.12976 6.31304
6.49263 6.66486 6.82678 6.97641 7.11263 7.23509 7.34398 7.55553 7.51429
7.47292 7.43024 7.38417 7.33189 7.27054 7.1982 7.11467 7.02172 6.92271
6.82151 6.72053 6.61603 6.48966 6.30213 6.01281 5.6246 5.18372 4.73313
4.29363 3.87214 3.47032 3.0887 2.72912 2.6004 2.6848 2.79189 2.94729
3.16355 3.43239 3.73259 4.04231 4.34501 4.62984 4.89072 5.12609 5.33874
5.53476 5.72124 5.90361 6.08425 6.26266 6.43663 6.60346 6.76078 6.90681
7.04049 7.16138 7.26956 7.61618 7.59719 7.57812 7.55512 7.52258 7.47432
7.40576 7.31622 7.20981 7.09447 6.97996 6.87616 6.79127 6.72688 6.66326
6.53494 6.25181 5.81153 5.30497 4.79974 4.31794 3.86352 3.43554 3.03217
2.65335 2.49958 2.54949 2.6258 2.76447 2.98255 3.26619 3.58531 3.91264
4.23028 4.52806 4.80096 5.04789 5.27121 5.47584 5.66768 5.85167 6.03065
6.20516 6.3742 6.53603 6.68889 6.83133 6.9624 7.08165 7.18906 7.68067
7.68785 7.69681 7.7008 7.68962 7.65155 7.57801 7.46853 7.33243 7.18549
7.04502 6.92693 6.84477 6.80632 6.79587 6.72944 6.46197 5.98095 5.42277
4.87161 4.34993 3.8634 3.41138 2.99008 2.59702 2.4255 2.45072 2.50448
2.63016 2.84794 3.13948 3.46836 3.80409 4.12845 4.43221 4.71134 4.96517
5.19566 5.4067 5.60302 5.78887 5.9671 6.13889 6.30408 6.46176 6.61075
6.74997 6.87865 6.99639 7.10313 7.74349 7.78064 7.82419 7.8647 7.88594
7.86708 7.79115 7.65616 7.47883 7.28634 7.10518 6.95586 6.85319 6.80459
6.79403 6.73916 6.49801 6.04898 5.50408 4.93567 4.38159 3.86651 3.39577
2.96398 2.56585 2.38977 2.40886 2.45684 2.57656 2.788 3.07304 3.39574
3.72605 4.04623 4.34751 4.6262 4.8816 5.11514 5.32969 5.52887 5.71612
5.89401 6.06394 6.2263 6.38074 6.52659 6.66314 6.78981 6.90629 7.01253
7.79701 7.86644 7.95025 8.03749 8.10501 8.11796 8.04351 7.87492 7.6408
7.38622 7.14907 6.95232 6.80698 6.71351 6.65178 6.56047 6.35369 6.00492
5.53702 4.97716 4.39822 3.86222 3.38228 2.9502 2.55767 2.39082 2.4224
2.48135 2.60235 2.80196 3.06688 3.36821 3.67999 3.98571 4.27659 4.54861
4.80056 5.03309 5.24809 5.44812 5.63577 5.81315 5.98164 6.14184 6.2938
6.43719 6.5716 6.69666 6.81217 6.91811 7.8314 7.9316 8.0568 8.19669
8.32222 8.38029 8.31239 8.10194 7.7963 7.46685 7.16456 6.91219 6.71425
6.5638 6.44078 6.30889 6.12824 5.87031 5.48591 4.95187 4.37048 3.83455
3.36135 2.94081 2.56316 2.41464 2.46911 2.54754 2.67422 2.86117 3.10081
3.37346 3.65926 3.94392 4.21886 4.47955 4.72406 4.95219 5.16487 5.36371
5.5505 5.72683 5.89386 6.05224 6.20217 6.3436 6.47633 6.60015 6.71495
6.82077 7.83587 7.95925 8.11759 8.30309 8.48375 8.58922 8.53051 8.27734
7.89985 7.49893 7.13671 6.83337 6.58693 6.38561 6.21159 6.04307 5.85828
5.62708 5.28681 4.80651 4.27286 3.77201 3.32545 2.92766 2.57114 2.44437
2.52344 2.62195 2.75564 2.93271 3.14962 3.39441 3.65327 3.91486 4.1714
4.41817 4.65266 4.87394 5.08213 5.27803 5.46272 5.63727 5.80256 5.95915
6.1073 6.24707 6.37842 6.50125 6.61555 6.72137 7.80146 7.93409 8.10603
8.3111 8.51674 8.64441 8.58819 8.30935 7.89087 7.44922 7.051 6.71404
6.43288 6.19401 5.98138 5.77824 5.5664 5.3184 4.99362 4.57875 4.12241
3.68001 3.2739 2.90607 2.57361 2.46814 2.56894 2.68449 2.82483 2.99548
3.19516 3.41705 3.65214 3.89207 4.13034 4.3625 4.5858 4.79881 5.00106
5.19269 5.37423 5.54629 5.70945 5.8641 6.01051 6.14878 6.27892 6.40093
6.51485 6.62077 7.72443 7.84933 8.00936 8.19691 8.37945 8.48381 8.41565
8.14181 7.7356 7.30166 6.9023 6.55561 6.25743 5.99586 5.75701 5.52651
5.28851 5.02332 4.71094 4.34865 3.96015 3.57538 3.21188 2.87552 2.56706
2.48064 2.59899 2.7279 2.87392 3.04084 3.22848 3.43309 3.64903 3.87039
4.09212 4.31034 4.52238 4.72659 4.9221 5.10863 5.28626 5.45524 5.61586
5.76839 5.913 6.04978 6.17879 6.30006 6.41366 6.51969 6.33998 6.21639
6.08437 5.94316 5.79179 5.62913 5.4548 5.27245 5.09641 4.94719 4.82249
4.69957 4.56513 4.41724 4.25758 4.08813 3.91055 3.72617 3.53619 3.34179
3.14418 2.94461 2.74433 2.54451 2.34617 2.33309 2.50292 2.67253 2.84277
3.01442 3.18809 3.36417 3.54281 3.72393 3.90726 4.09234 4.27854 4.46514
4.65125 4.83583 5.01771 5.19558 5.368 5.53353 5.69083 5.83879 5.97667
6.10415 6.2213 6.32855 6.45358 6.3307 6.19917 6.05836 5.90743 5.74557
5.57286 5.39325 5.21954 5.06842 4.93783 4.80901 4.66995 4.51823 4.35498
4.18181 4.00014 3.8112 3.61614 3.41617 3.21259 3.00679 2.8002 2.59417
2.38988 2.37451 2.54531 2.71585 2.88718 3.0602 3.23567 3.41407 3.59563
3.78031 3.96785 4.15778 4.34948 4.54213 4.73476 4.92621 5.11508 5.29977
5.4785 5.64942 5.81085 5.96145 6.10038 6.22742 6.34287 6.44744 6.57133
6.44975 6.31953 6.18024 6.03149 5.87318 5.70631 5.53492 5.36784 5.21421
5.07256 4.93214 4.78444 4.6265 4.45827 4.28057 4.09432 3.90046 3.70003
3.49418 3.28431 3.07193 2.85866 2.64605 2.43547 2.41762 2.5893 2.76069
2.93297 3.10725 3.28439 3.46499 3.64937 3.83756 4.02932 4.22419 4.42154
4.62051 4.82006 5.01888 5.21533 5.40746 5.59306 5.76979 5.93551 6.08858
6.22811 6.35401 6.46692 6.56796 6.69319 6.57339 6.44502 6.30794 6.16219
6.00825 5.84763 5.68362 5.52136 5.36502 5.21372 5.06217 4.90525 4.74027
4.5664 4.38368 4.1925 3.99347 3.78741 3.57546 3.35903 3.13979 2.91955
2.70006 2.4829 2.46242 2.63496 2.80712 2.98029 3.15569 3.33436 3.51702
3.70408 3.89563 4.09151 4.29128 4.4943 4.69972 4.9064 5.1129 5.31736
5.51742 5.71035 5.89321 6.06329 6.21858 6.35814 6.48215 6.59168 6.68839
6.81905 6.70137 6.57514 6.44046 6.29766 6.1475 5.99147 5.83192 5.67169
5.51265 5.35433 5.19418 5.02929 4.85758 4.678 4.49008 4.2938 4.08942
3.87758 3.65934 3.43617 3.20988 2.98247 2.75591 2.53197 2.5088 2.68222
2.85517 3.02916 3.20559 3.38565 3.57017 3.75969 3.95439 4.15416 4.35862
4.56714 4.77887 4.99264 5.20686 5.41944 5.62763 5.82809 6.01718 6.19152
6.3487 6.48772 6.60913 6.7146 6.80637 6.94883 6.83347 6.70946 6.57702
6.43665 6.28917 6.13583 5.97828 5.81813 5.65638 5.4928 5.3261 5.15461
4.97685 4.79175 4.59862 4.39712 4.18727 3.96954 3.74492 3.51493 3.28151
3.04686 2.81316 2.58236 2.55651 2.73092 2.9047 3.07951 3.25691 3.43821
3.62439 3.8161 4.01361 4.21691 4.42565 4.63927 4.85688 5.0773 5.29884
5.51919 5.7352 5.94294 6.138 6.31629 6.47491 6.61292 6.73129 6.83234
6.91899 7.08251 6.96958 6.84773 6.71724 6.57864 6.43274 6.28058 6.12334
5.96211 5.79751 5.6295 5.45743 5.28027 5.09695 4.90648 4.7081 4.50127
4.28583 4.06212 3.83107 3.59427 3.35377 3.11196 2.87121 2.63363 2.60522
2.78078 2.95551 3.1312 3.30953 3.49194 3.67954 3.87311 4.07303 4.27934
4.49178 4.70979 4.93251 5.15871 5.38662 5.61375 5.83661 6.0507 6.25094
6.43252 6.59214 6.7289 6.84421 6.94108 7.02303 7.22015 7.10974 6.98995
6.86107 6.72363 6.5784 6.42629 6.26826 6.10514 5.93745 5.7653 5.58833
5.4059 5.2172 5.02134 4.81754 4.60516 4.38394 4.15413 3.91665 3.67312
3.42573 3.17698 2.92942 2.68528 2.65451 2.83145 3.00732 3.18401 3.36328
3.54669 3.73548 3.93054 4.13236 4.34106 4.55641 4.77787 5.00456 5.23522
5.46799 5.70022 5.92818 6.14696 6.35094 6.53481 6.69499 6.8306 6.94345
7.03706 7.11543 7.36187 7.25409 7.13626 7.00868 6.87189 6.72663 6.57375
6.41413 6.24852 6.07742 5.90105 5.71923 5.53155 5.33734 5.13584 4.92626
4.70798 4.48068 4.24461 4.00069 3.75058 3.49656 3.24122 2.98721 2.73685
2.70403 2.88264 3.05989 3.23773 3.41799 3.60233 3.79209 3.98827 4.19144
4.40178 4.61911 4.84286 5.07211 5.30552 5.54117 5.77628 6.00695 6.22809
6.43386 6.61874 6.77905 6.91397 7.02551 7.11742 7.1939 7.50786 7.40284
7.28692 7.1604 7.02382 6.87796 6.72369 6.56188 6.39329 6.21846 6.03764
5.8508 5.65763 5.45758 5.24998 5.03413 4.80944 4.57567 4.33308 4.08266
3.82612 3.56576 3.30425 3.04423 2.78806 2.75353 2.93413 3.11305 3.29225
3.47361 3.65884 3.84937 4.04628 4.25023 4.46143 4.67969 4.90443 5.13465
5.36894 5.60524 5.84072 6.07144 6.29236 6.49775 6.68226 6.84234 6.97723
7.08886 7.1809 7.25748 7.65825 7.5562 7.44218 7.31651 7.17979 7.03289
6.87674 6.7123 6.54036 6.36151 6.17603 5.98393 5.78495 5.57864 5.3644
5.14166 4.90996 4.66918 4.41973 4.16267 3.89976 3.63334 3.36602 3.10042
2.83887 2.80298 2.9859 3.16679 3.3476 3.53019 3.71633 3.90747 4.10477
4.30891 4.52015 4.73829 4.96268 5.19228 5.42554 5.66035 5.89383 6.12212
6.34044 6.54349 6.72639 6.88593 7.02137 7.13438 7.22825 7.30676 7.81311
7.71426 7.60217 7.47719 7.34003 7.19171 7.03332 6.86595 6.69047 6.50748
6.31727 6.11979 5.91478 5.70182 5.48041 5.25012 5.01072 4.76232 4.50552
4.24154 3.97221 3.69983 3.42697 3.15612 2.88951 2.85257 3.03813 3.2213
3.40397 3.58798 3.77506 3.96671 4.16407 4.36787 4.57837 4.79536 5.01815
5.24563 5.47618 5.70765 5.93718 6.16111 6.37507 6.57436 6.75476 6.91348
7.0498 7.16503 7.2619 7.34368 7.97223 7.87689 7.76679 7.64233 7.50445
7.35439 7.19353 7.02313 6.84417 6.65724 6.46252 6.25985 6.04884 5.82902
5.6 5.36153 5.11369 4.85692 4.59213 4.32075 4.04472 3.7663 3.48794
3.21199 2.9405 2.90273 3.0912 3.27694 3.46173 3.64733 3.83543 4.0275
4.22467 4.42766 4.63673 4.85166 5.07174 5.29584 5.52233 5.74907 5.9733
6.19164 6.40019 6.59492 6.77229 6.92994 7.06718 7.18494 7.28536 7.37113
8.13501 8.0435 7.93541 7.8113 7.67238 7.52033 7.35691 7.18366 7.00169
6.81149 6.61304 6.40586 6.18931 5.96276 5.72585 5.47861 5.22149 4.95543
4.68177 4.40227 4.11897 3.83414 3.55008 3.26893 2.99255 2.95405 3.14565
3.33419 3.5213 3.70867 3.89789 4.09034 4.28712 4.48893 4.696 4.90812
5.12461 5.34438 5.56584 5.78694 6.0051 6.21724 6.41997 6.60986 6.78397
6.94034 7.07829 7.19846 7.30242 7.3923 8.30015 8.21277 8.10666 7.98261
7.84231 7.68805 7.52218 7.34666 7.1627 6.97066 6.77007 6.55989 6.33893
6.10622 5.86138 5.60473 5.33732 5.06075 4.77701 4.48829 4.19685 3.90495
3.6147 3.32801 3.04649 3.00722 3.20211 3.39359 3.58319 3.77246 3.96286
4.15569 4.35196 4.55232 4.75699 4.96578 5.17808 5.39288 5.60873 5.82372
6.0355 6.24132 6.43821 6.62329 6.79411 6.949 7.08734 7.20949 7.31659
7.41027 8.46528 8.38224 8.27794 8.15351 8.01138 7.85474 7.6868 7.51011
7.32607 7.13471 6.93481 6.72434 6.50109 6.26343 6.01081 5.74399 5.46488
5.17609 4.88054 4.58106 4.28022 3.98026 3.68308 3.39029 3.10319 3.06299
3.26122 3.45571 3.64787 3.83909 4.03072 4.22394 4.41965 4.61842 4.82048
5.02566 5.23347 5.443 5.653 5.86176 6.06718 6.26682 6.4581 6.63856
6.80611 6.95934 7.09765 7.2212 7.3308 7.42767 8.62657 8.54783 8.4449
8.31942 8.17486 8.0157 7.84641 7.67043 7.48939 7.30283 7.10829 6.90203
6.68009 6.43955 6.17952 5.90137 5.60839 5.30483 4.99499 4.68264 4.37073
4.06147 3.75643 3.4568 3.1635 3.12209 3.32361 3.52108 3.71574 3.90888
4.10173 4.29533 4.49048 4.68768 4.88711 5.08867 5.29195 5.49623 5.70044
5.9031 6.10239 6.29614 6.48211 6.65815 6.82246 6.97383 7.11165 7.23596
7.34731 7.44662 8.77821 8.70334 8.60096 8.47341 8.32557 8.16377 7.99426
7.82176 7.64839 7.47296 7.29115 7.09637 6.88158 6.64152 6.37451 6.08303
5.7727 5.45044 5.12276 4.79472 4.4697 4.14969 3.83577 3.52848 3.22824
3.18523 3.38993 3.59016 3.78712 3.98201 4.17597 4.36994 4.56459 4.76033
4.95731 5.15545 5.35444 5.55373 5.75243 5.94933 6.14282 6.33103 6.51197
6.68375 6.84482 6.99406 7.13092 7.25534 7.36767 7.46859 8.91216 8.84006
8.73683 8.60571 8.45344 8.28876 8.12044 7.9552 7.79604 7.64107 7.48324
7.3114 7.11313 6.87878 6.60516 6.29668 5.9632 5.61623 5.26568 4.91831
4.57784 4.24569 3.92197 3.60628 3.29832 3.25321 3.4608 3.66339 3.86222
4.0585 4.25336 4.44761 4.64183 4.83632 5.03116 5.22627 5.42141 5.61615
5.8098 6.00136 6.18945 6.37245 6.5486 6.71625 6.874 7.02087 7.15631
7.28019 7.39275 7.49446 9.01833 8.94697 8.84075 8.70394 8.54552 8.37731
8.21147 8.05781 7.92126 7.79964 7.68242 7.55138 7.38464 7.16424 6.88386
6.55163 6.1854 5.80462 5.4243 5.05326 4.69504 4.34976 4.01581 3.69128
3.37482 3.32697 3.53693 3.74114 3.94107 4.13815 4.3335 4.52789 4.72175
4.91523 5.10832 5.30088 5.49271 5.68347 5.87262 6.05933 6.24244 6.42055
6.59213 6.75572 6.91008 7.05432 7.18792 7.3107 7.4228 7.52455 9.08575
9.01194 8.89964 8.7542 8.58696 8.41336 8.25006 8.11163 8.0069 7.93502
7.88181 7.81871 7.7076 7.51428 7.22579 6.8577 6.44326 6.01552 5.59677
5.19753 4.81999 4.46168 4.11813 3.78496 3.45932 3.40782 3.61913 3.82364
4.02344 4.22036 4.41563 4.60993 4.80347 4.9962 5.18794 5.37848 5.56757
5.75494 5.94013 6.12248 6.30103 6.47457 6.6418 6.80143 6.95236 7.09379
7.22522 7.34643 7.45749 7.55863 9.10469 9.02411 8.90169 8.74356 8.5632
8.37984 8.21574 8.09267 8.02697 8.02267 8.06362 8.10773 8.09 7.9448
7.64473 7.22039 6.73477 6.24329 5.7769 5.3461 4.9496 4.58056 4.23003
3.88965 3.55426 3.49756 3.70827 3.9108 4.10856 4.30401 4.49847 4.69238
4.88562 5.07785 5.26863 5.45762 5.6445 5.82901 6.01078 6.18925 6.36366
6.53298 6.69611 6.85193 6.99949 7.13803 7.26709 7.38642 7.49602 7.59605