# vtk DataFile Version 3.0
vtk output
ASCII
DATASET RECTILINEAR_GRID
FIELD FieldData 2
base_index 1 3 int
0 0 0
avtOriginalBounds 1 6 double
-10 10 -10 10 -10 10
DIMENSIONS 50 50 50
X_COORDINATES 50 float
-10 -9.59184 -9.18367 -8.77551 -8.36735 -7.95918 -7.55102 -7.14286 -6.73469
-6.32653 -5.91837 -5.5102 -5.10204 -4.69388 -4.28571 -3.87755 -3.46939 -3.06122
-2.65306 -2.2449 -1.83673 -1.42857 -1.02041 -0.612245 -0.204082 0.204082 0.612245
1.02041 1.42857 1.83673 2.2449 2.65306 3.06122 3.46939 3.87755 4.28572
4.69388 5.10204 5.5102 5.91837 6.32653 6.73469 7.14286 7.55102 7.95918
8.36735 8.77551 9.18367 9.59184 10
Y_COORDINATES 50 float
-10 -9.59184 -9.18367 -8.77551 -8.36735 -7.95918 -7.55102 -7.14286 -6.73469
-6.32653 -5.91837 -5.5102 -5.10204 -4.69388 -4.28571 -3.87755 -3.46939 -3.06122
-2.65306 -2.2449 -1.83673 -1.42857 -1.02041 -0.612245 -0.204082 0.204082 0.612245
1.02041 1.42857 1.83673 2.2449 2.65306 3.06122 3.46939 3.87755 4.28572
4.69388 5.10204 5.5102 5.91837 6.32653 6.73469 7.14286 7.55102 7.95918
8.36735 8.77551 9.18367 9.59184 10
Z_COORDINATES 50 float
-10 -9.59184 -9.18367 -8.77551 -8.36735 -7.95918 -7.55102 -7.14286 -6.73469
-6.32653 -5.91837 -5.5102 -5.10204 -4.69388 -4.28571 -3.87755 -3.46939 -3.06122
-2.65306 -2.2449 -1.83673 -1.42857 -1.02041 -0.612245 -0.204082 0.204082 0.612245
1.02041 1.42857 1.83673 2.2449 2.65306 3.06122 3.46939 3.87755 4.28572
4.69388 5.10204 5.5102 5.91837 6.32653 6.73469 7.14286 7.55102 7.95918
8.36735 8.77551 9.18367 9.59184 10
CELL_DATA 117649
POINT_DATA 125000
SCALARS temp float
LOOKUP_TABLE default
8.75843 8.65583 8.54327 8.4199 8.28477 8.13727 7.97837 7.81368 7.65671
7.52236 7.40925 7.30071 7.18331 7.05229 6.90753 6.75026 6.5819 6.40377
6.21717 6.02338 5.82383 5.62004 5.41359 5.20609 4.99905 4.79381 4.59143
4.39267 4.19793 4.00728 3.8205 3.63713 3.45655 3.2781 3.10106 2.92477
2.74867 2.57225 2.39514 2.21706 2.32265 2.49748 2.66951 2.83789 3.00176
3.16035 3.31303 3.45935 3.59909 3.7322 8.91121 8.81069 8.7 8.57837
8.44503 8.29959 8.14328 7.98164 7.82687 7.69175 7.57498 7.46211 7.34091
7.20656 7.05855 6.89779 6.72545 6.54271 6.35076 6.15092 5.94467 5.73367
5.5197 5.3046 5.09009 4.87773 4.66875 4.46403 4.26404 4.06887 3.87825
3.69168 3.50844 3.32775 3.1488 2.97082 2.79311 2.6151 2.43631 2.25639
2.36506 2.54425 2.72051 2.8928 3.06009 3.22148 3.37625 3.52395 3.66439
3.79763 9.06929 8.97164 8.86386 8.74543 8.61596 8.47564 8.32621 8.17264
8.02372 7.88748 7.76288 7.64052 7.51138 7.37094 7.21797 7.05266 6.87566
6.68782 6.49014 6.28387 6.07054 5.85193 5.63002 5.40688 5.18447 4.96457
4.74858 4.53752 4.33194 4.13193 3.93721 3.74721 3.56113 3.37808 3.19713
3.0174 2.8381 2.65852 2.4781 2.29638 2.4083 2.59206 2.77272 2.94906
3.11984 3.28398 3.44071 3.58955 3.7304 3.86345 9.23253 9.13842 9.03432
8.92 8.7955 8.6615 8.51992 8.37463 8.23111 8.09356 7.96127 7.82897
7.69086 7.54323 7.38438 7.21384 7.03169 6.83837 6.63465 6.42166 6.20094
5.97441 5.74423 5.5127 5.28205 5.05426 4.83093 4.61321 4.4017 4.19655
3.99745 3.80376 3.61461 3.429 3.24591 3.06433 2.88337 2.7022 2.52016
2.33667 2.45192 2.64035 2.82552 3.00597 3.18023 3.34705 3.50554 3.65526
3.79623 3.92879 9.40075 9.31065 9.21067 9.10082 8.98142 8.85337 8.71843
8.57934 8.43928 8.30035 8.1621 8.02167 7.87554 7.72089 7.556 7.37994
7.19235 6.9933 6.78331 6.56338 6.33507 6.1004 5.86174 5.62162 5.3825
5.14659 4.91568 4.69103 4.47333 4.26274 4.05896 3.86129 3.6688 3.4804
3.29494 3.11134 2.92858 2.74573 2.562 2.37671 2.49526 2.68833 2.87798
3.0625 3.24014 3.40946 3.56949 3.71985 3.86069 3.99253 9.57371 9.48794
9.39226 9.28681 9.17206 9.04894 8.91887 8.78374 8.64542 8.50504 8.36229
8.21561 8.06281 7.90184 7.73109 7.54946 7.35627 7.1513 6.93486 6.70785
6.47184 6.22895 5.98173 5.73295 5.48531 5.2412 5.00258 4.77083 4.54672
4.33044 4.12169 3.91974 3.72359 3.53209 3.34399 3.15811 2.97332 2.7886
2.60303 2.41584 2.53749 2.73496 2.92888 3.11722 3.29802 3.46962 3.63098
3.78177 3.92233 4.05337 9.75126 9.67002 9.57864 9.47732 9.36658 9.24725
9.12049 8.98762 8.84985 8.70784 8.56145 8.40975 8.25132 8.08462 7.90823
7.72099 7.52204 7.31097 7.08792 6.85373 6.60998 6.3589 6.10322 5.84589
5.58982 5.33758 5.09126 4.85236 4.6217 4.39953 4.18553 3.97898 3.77884
3.58388 3.3928 3.2043 3.01717 2.83027 2.64262 2.45332 2.57767 2.77908
2.97677 3.16852 3.35209 3.52566 3.68814 3.83928 3.97957 4.10992 9.93328
9.85672 9.76959 9.67208 9.56471 9.44822 9.32357 9.19177 9.0537 8.90984
8.76015 8.60404 8.44053 8.26841 8.08642 7.89341 7.68845 7.47101 7.24116
6.99971 6.74825 6.48913 6.2252 5.95958 5.69534 5.43519 5.18133 4.93532
4.69806 4.46984 4.25037 4.03891 3.83441 3.6356 3.44112 3.24959 3.0597
2.87026 2.68016 2.48845 2.6149 2.81951 3.02026 3.21474 3.40054 3.57573
3.73918 3.89072 4.03093 4.16089 10.1197 10.048 9.96504 9.87106 9.76652
9.65213 9.52872 9.39717 9.2582 9.11222 8.95928 8.79896 8.63053 8.45299
8.26521 8.06609 7.85471 7.63053 7.39362 7.14477 6.88566 6.61869 6.34684
6.07332 5.8013 5.53358 5.27242 5.01946 4.77563 4.54126 4.3161 4.09944
3.89022 3.68714 3.48879 3.29375 3.10064 2.90817 2.71519 2.52067 2.64845
2.85535 3.05823 3.2546 3.44198 3.6184 3.78273 3.93481 4.07531 4.20537
10.3104 10.2437 10.165 10.0743 9.9722 9.85935 9.73659 9.60473 9.46443
9.31612 9.15985 8.99531 8.82189 8.63872 8.44477 8.23905 8.0207 7.78928
7.54491 7.28848 7.02172 6.74711 6.46768 6.1867 5.90736 5.63248 5.36436
5.10465 4.85433 4.61377 4.38274 4.16059 3.94627 3.73847 3.53578 3.33671
3.13983 2.94382 2.74746 2.54971 2.67799 2.88616 3.09015 3.2875 3.47577
3.65303 3.81816 3.97101 4.11224 4.24297 10.5052 10.4438 10.3693 10.2818
10.1818 10.0702 9.94764 9.81513 9.67332 9.52258 9.36298 9.19421 9.0157
8.82661 8.62605 8.41312 8.18714 7.94783 7.69549 7.43116 7.15666 6.87453
6.58782 6.29978 6.01354 5.73192 5.45717 5.19094 4.93423 4.68744 4.4504
4.22249 4.00269 3.78973 3.58217 3.37853 3.17734 2.97725 2.77703 2.57562
2.7036 2.91207 3.11621 3.31368 3.5022 3.67992 3.84578 3.99961 4.14197
4.27389 10.7037 10.6479 10.5777 10.4933 10.3952 10.2845 10.162 10.0288
9.88554 9.73257 9.56989 9.3971 9.21354 9.01838 8.81079 8.59003 8.35567
8.10771 7.84673 7.57399 7.29149 7.0018 6.70795 6.4131 6.1203 5.83226
5.55115 5.27859 5.01558 4.76253 4.51932 4.28537 4.05973 3.84115 3.62823
3.41948 3.21344 3.00877 2.80423 2.59878 2.72577 2.93373 3.13724 3.33414
3.52237 3.70023 3.86674 4.02165 4.16542 4.29892 10.9052 10.8552 10.7894
10.708 10.6117 10.5018 10.3794 10.2458 10.1015 9.94694 9.78189 9.60573
9.41757 9.21646 9.00159 8.77243 8.52888 8.27135 8.00085 7.71899 7.42795
7.13041 6.82931 6.52771 6.22848 5.93418 5.64686 5.36807 5.09877 4.83939
4.58983 4.34958 4.11773 3.8931 3.67431 3.45994 3.24857 3.03885 2.82961
2.61983 2.7453 2.95216 3.15449 3.35035 3.5379 3.71565 3.88266 4.03867
4.18396 4.31924 11.1081 11.0643 11.0029 10.9244 10.8299 10.7208 10.5988
10.4653 10.321 10.1663 10.0003 9.82219 9.6305 9.42403 9.2019 8.96383
8.71019 8.44198 8.16081 7.86877 7.56835 7.26232 6.95358 6.645 6.33923
6.03861 5.74506 5.45999 5.18431 4.91845 4.66235 4.41551 4.17709 3.94598
3.72089 3.50044 3.28328 3.06813 2.85387 2.63952 2.76314 2.96856 3.16938
3.36392 3.55056 3.72799 3.89536 4.05235 4.19912 4.33621 11.3101 11.2727
11.2158 11.14 11.0469 10.9388 10.8178 10.6856 10.5433 10.3906 10.2264
10.0488 9.85562 9.64506 9.41607 9.16864 8.9038 8.62342 8.32999 8.0263
7.71525 7.39978 7.08267 6.76658 6.45389 6.14667 5.84662 5.55504 5.27277
5.00019 4.73725 4.48351 4.23819 4.00023 3.76843 3.54151 3.3182 3.09731
2.87777 2.6587 2.78028 2.98408 3.18327 3.37638 3.56199 3.73896 3.90652
4.06432 4.21241 4.35117 11.5078 11.4767 11.4239 11.3504 11.2587 11.1517
11.0326 10.9038 10.7663 10.6195 10.4612 10.2882 10.0969 9.88449 9.64943
9.3921 9.11454 8.81993 8.51203 8.19465 7.87128 7.54502 7.21853 6.89415
6.57389 6.25952 5.9525 5.65396 5.36468 5.085 4.81488 4.55391 4.30134
4.0562 3.81737 3.58367 3.35393 3.12705 2.90206 2.67813 2.79764 2.9998
3.19736 3.38902 3.57356 3.74998 3.91756 4.07596 4.22514 4.36535 11.696
11.6707 11.6214 11.5495 11.4586 11.353 11.2372 11.1144 10.9861 10.851
10.7052 10.5433 10.3593 10.1485 9.90856 9.64049 9.34786 9.03595 8.71047
8.37666 8.03878 7.70009 7.36299 7.02935 6.70069 6.37838 6.06363 5.75744
5.46051 5.1732 4.89546 4.62688 4.36676 4.11417 3.86806 3.62735 3.39099
3.15796 2.92738 2.69849 2.81595 3.01657 3.21258 3.40285 3.58632 3.76212
3.92958 4.08835 4.23835 4.37972 11.8677 11.8473 11.8001 11.7285 11.6375
11.5334 11.4225 11.3097 11.1967 11.0815 10.9579 10.8169 10.6485 10.4446
10.2016 9.92115 9.60969 9.27586 8.92839 8.57456 8.21955 7.86663 7.51767
7.17376 6.83574 6.50448 6.18095 5.86609 5.56064 5.26497 4.97904 4.70244
4.43447 4.17421 3.92066 3.67283 3.42973 3.19046 2.95421 2.72027 2.83579
3.03501 3.22959 3.41857 3.601 3.77611 3.94331 4.10224 4.25278 4.39499
12.0141 11.9966 11.9494 11.8762 11.7835 11.6805 11.5761 11.4776 11.3879
11.3042 11.2171 11.1118 10.9715 10.7824 10.5383 10.2424 9.90602 9.54334
9.16781 8.78948 8.41448 8.04572 7.68395 7.32898 6.98062 6.63915 6.30542
5.98048 5.66525 5.36024 5.06543 4.78036 4.50426 4.23619 3.97514 3.72014
3.47028 3.22474 2.98278 2.74374 2.85745 3.05544 3.24876 3.43654 3.61797
3.79236 3.95917 4.11806 4.26887 4.41162 12.1252 12.1075 12.0572 11.979
11.882 11.7784 11.6814 11.6016 11.5447 11.5075 11.4765 11.4286 11.3354
11.1728 10.9298 10.6129 10.2417 9.8401 9.42854 9.0206 8.62308 8.23765
7.86301 7.49681 7.13726 6.78402 6.43806 6.10101 5.77429 5.45866 5.15413
4.8601 4.57564 4.29968 4.03114 3.76903 3.51248 3.26071 3.01304 2.76887
2.88094 3.0779 3.2701 3.45679 3.63727 3.81092 3.97724 4.13591 4.28677
4.42977 12.1908 12.1686 12.1106 12.0228 11.9168 11.8089 11.7173 11.6588
11.6438 11.6709 11.7222 11.7623 11.7442 11.6252 11.3858 11.0382 10.6175
10.1635 9.70643 9.26403 8.84276 8.44175 8.05602 7.67962 7.30832 6.94114
6.57997 6.22785 5.88727 5.55941 5.24419 4.94072 4.64774 4.36391 4.088
3.81894 3.55584 3.29795 3.04464 2.79537 2.90596 3.10208 3.29333 3.47906
3.65865 3.83155 3.99732 4.15565 4.30635 4.44937 12.2028 12.1706 12.0992
11.9952 11.8728 11.7525 11.6594 11.6191 11.6513 11.7602 11.9249 12.0937
12.1903 12.1399 11.9066 11.514 11.0245 10.5023 9.99092 9.5113 9.0681
8.65598 8.26418 7.88081 7.49759 7.11316 6.73207 6.36052 6.00292 5.66092
5.33406 5.0208 4.71929 4.42776 4.14471 3.86894 3.59953 3.33573 3.07694
2.82265 2.93194 3.12741 3.31787 3.50277 3.68156 3.85376 4.01895 4.17685
4.32726 4.47011 12.1573 12.109 12.0174 11.8891 11.7393 11.5925 11.4818
11.4456 11.5195 11.7209 12.0297 12.3743 12.6356 12.6866 12.4641 12.0111
11.4342 10.8321 10.2627 9.74817 9.28969 8.87603 8.48831 8.10478 7.70992
7.30269 6.89417 6.49703 6.1186 5.76058 5.42141 5.09835 4.78858 4.48973
4.19994 3.91784 3.64245 3.37302 3.109 2.84992 2.95808 3.15307 3.34292
3.52714 3.70525 3.87682 4.04148 4.19892 4.34897 4.49154 12.0567 11.9867
11.8682 11.7061 11.5147 11.3199 11.1622 11.0974 11.1874 11.4753 11.948
12.5094 12.9836 13.1719 12.9725 12.4567 11.7908 11.113 10.4936 9.95448
9.49296 9.09276 8.72573 8.35427 7.94852 7.5092 7.06224 6.6321 6.22937
5.85433 5.50304 5.17078 4.85347 4.54798 4.25206 3.96416 3.68326 3.40863
3.13974 2.87619 2.9834 3.17808 3.36749 3.5512 3.7288 3.89989 4.06409
4.22113 4.37082 4.51306 11.9099 11.8146 11.6644 11.4605 11.2122 10.9418
10.6932 10.5415 10.5909 10.9331 11.5708 12.369 13.0785 13.4272 13.2792
12.736 12.0184 11.2972 10.6524 10.1067 9.65701 9.28654 8.96024 8.61811
8.20305 7.71959 7.22283 6.7548 6.32733 5.93662 5.57493 5.23507 4.91154
4.60046 4.29926 4.00628 3.72048 3.4412 3.16795 2.90037 3.00682 3.20136
3.39052 3.57394 3.75123 3.92201 4.08592 4.24268 4.39208 4.534 11.7314
11.6103 11.428 11.1794 10.8645 10.4937 10.1028 9.78154 9.69621 10.0335
10.8297 11.8702 12.8025 13.307 13.2501 12.7539 12.0593 11.3506 10.7161
10.1839 9.75623 9.42136 9.14366 8.84151 8.42086 7.89134 7.34727 6.84777
6.40214 6.00101 5.63274 5.28801 4.96021 4.645 4.33964 4.04248 3.75257
3.46932 3.19236 2.92138 3.02726 3.22182 3.41094 3.5943 3.77153 3.94225
4.10609 4.26275 4.41199 4.55368 11.5381 11.3954 11.1869 10.9011 10.5252
10.05 9.48676 8.91992 8.58891 8.85088 9.81734 11.1168 12.2411 12.8673
12.917 12.527 11.921 11.2748 10.6809 10.1759 9.76929 9.45488 9.19999
8.9173 8.49871 7.95615 7.39942 6.89291 6.44424 6.0418 5.67261 5.32665
4.99707 4.6795 4.37133 4.07109 3.778 3.49164 3.21176 2.93812 3.04367
3.23839 3.4277 3.61128 3.78875 3.95971 4.12375 4.28054 4.42982 4.57143
11.346 11.1903 10.969 10.666 10.259 9.71944 9.02755 8.23906 7.6425
7.80198 8.94105 10.4674 11.7021 12.368 12.4765 12.1814 11.6745 11.1064
10.5647 10.0895 9.69425 9.37428 9.09939 8.79794 8.39037 7.88564 7.36528
6.88316 6.44937 6.05591 5.69198 5.34877 5.02011 4.70215 4.39268 4.09059
3.79539 3.5069 3.22502 2.94962 3.05506 3.25012 3.43987 3.62398 3.80203
3.97357 4.13814 4.29535 4.4449 4.58661 11.1675 11.0099 10.7938 10.5039
10.117 9.60077 8.9261 8.13379 7.51288 7.67903 8.8683 10.3826 11.512
12.0626 12.1218 11.8502 11.4024 10.8944 10.397 9.94568 9.55266 9.21275
8.90084 8.57036 8.17839 7.72952 7.26745 6.8274 6.42046 6.04369 5.69011
5.35314 5.02795 4.71155 4.40236 4.09973 3.80358 3.51403 3.23118 2.95502
3.06058 3.25616 3.44662 3.63161 3.81064 3.98315 4.14861 4.30656 4.45666
4.59868 11.0093 10.8607 10.6674 10.4207 10.1077 9.71242 9.2309 8.72633
8.44463 8.80012 9.8527 11.0179 11.7716 12.0313 11.9254 11.5966 11.1547
10.6755 10.2058 9.7698 9.37532 9.01695 8.67696 8.32909 7.95278 7.54964
7.13958 6.74179 6.36468 6.008 5.66777 5.33957 5.01998 4.70693 4.39952
4.09768 3.80175 3.51223 3.22948 2.95361 3.05957 3.25584 3.44733 3.63359
3.81401 3.98791 4.15465 4.31368 4.46459 4.60715 10.8725 10.7405 10.5817
10.3972 10.1899 9.96933 9.76619 9.66511 9.8335 10.4251 11.2966 12.0027
12.2702 12.1622 11.8382 11.4098 10.94 10.4658 10.0096 9.5824 9.18673
8.81737 8.46292 8.10932 7.74666 7.37509 7.00297 6.63946 6.28928 5.95252
5.62667 5.30874 4.99635 4.68818 4.38394 4.0841 3.78949 3.50105 3.21945
2.94496 3.05155 3.24871 3.44156 3.62951 3.81177 3.9875 4.15591 4.31633
4.46833 4.61163 10.7549 10.6421 10.5202 10.3998 10.2976 10.2422 10.2821
10.4956 10.968 11.686 12.3998 12.7522 12.6444 12.2515 11.7551 11.2424
10.743 10.2666 9.81732 9.39603 9.00089 8.62703 8.26724 7.91397 7.56226
7.21171 6.86555 6.52752 6.1994 5.88056 5.56888 5.26194 4.9579 4.6559
4.35604 4.05926 3.76693 3.48046 3.20096 2.9289 3.03636 3.23461 3.42918
3.61925 3.80381 3.98177 4.15219 4.31431 4.4676 4.61182 10.6531 10.5574
10.4667 10.3978 10.3754 10.4342 10.6206 10.9858 11.5515 12.2312 12.7771
12.9254 12.6549 12.1541 11.5947 11.0526 10.546 10.0741 9.63245 9.21714
8.82428 8.44967 8.08881 7.7377 7.39393 7.05711 6.72831 6.40858 6.09782
5.79452 5.4963 5.20073 4.906 4.6113 4.31691 4.02412 3.73481 3.45105
3.17444 2.90574 3.01426 3.21381 3.41044 3.60306 3.79029 3.97082 4.14352
4.30751 4.46226 4.6075 10.5652 10.4821 10.4125 10.3759 10.3989 10.5133
10.7518 11.1358 11.6465 12.1837 12.5604 12.6116 12.3362 11.87 11.3452
10.8295 10.3433 9.8874 9.45752 9.04946 8.65976 8.28556 7.92447 7.57476
7.23562 6.90706 6.58944 6.28263 5.98546 5.69566 5.41034 5.1266 4.84222
4.55604 4.26824 3.98028 3.69463 3.41409 3.14097 2.87639 2.98613 3.18714
3.38613 3.58157 3.77174 3.95502 4.13009 4.29603 4.45226 4.59853 10.492
10.4168 10.3585 10.3364 10.3752 10.5001 10.7294 11.0625 11.4632 11.8455
12.0877 12.0968 11.8728 11.4945 11.0491 10.591 10.1433 9.71195 9.29683
8.89635 8.50911 8.13424 7.77133 7.42046 7.08216 6.75716 6.44589 6.14792
5.86158 5.584 5.31158 5.04061 4.76801 4.49193 4.21211 3.93003 3.6487
3.3718 3.10257 2.84261 2.95365 3.15618 3.35762 3.55595 3.74903 3.93496
4.1123 4.28004 4.43763 4.58486 10.4365 10.3668 10.3136 10.2945 10.3306
10.4406 10.6326 10.8949 11.1887 11.449 11.6007 11.5915 11.4195 11.1257
10.762 10.3671 9.96247 9.55774 9.15689 8.76189 8.37425 7.99546 7.62713
7.27103 6.92905 6.60292 6.29371 6.00129 5.72389 5.45813 5.19946 4.94298
4.68436 4.42061 4.15073 3.87604 3.6 3.32731 3.06225 2.80709 2.91936
3.12324 3.32687 3.52774 3.72331 3.91146 4.09064 4.25983 4.41849 4.56647
10.4025 10.3389 10.2893 10.269 10.2952 10.3812 10.5295 10.7249 10.9336
11.1086 11.2028 11.1851 11.0519 10.8227 10.5258 10.1857 9.81933 9.43701
9.04578 8.65112 8.2577 7.86955 7.49032 7.12342 6.77219 6.43967 6.12813
5.83829 5.56863 5.31521 5.07219 4.83298 4.59145 4.34311 4.08594 3.82088
3.55176 3.2842 3.02364 2.77316 2.88639 3.09108 3.29612 3.49864 3.69581
3.88535 4.06565 4.23571 4.395 4.54341 10.3927 10.3382 10.2949 10.275
10.2917 10.3545 10.4629 10.6027 10.7472 10.8633 10.9204 10.8987 10.7931
10.611 10.3652 10.0684 9.73103 9.36266 8.97257 8.56985 8.1626 7.75752
7.36014 6.97538 6.60802 6.2628 5.94384 5.65344 5.39078 5.15122 4.92702
4.70901 4.48867 4.25962 4.01865 3.76622 3.50634 3.24543 2.98994 2.74379
2.85751 3.06209 3.26729 3.47007 3.66751 3.85728 4.03776 4.20793 4.3673
4.51575 10.4077 10.3666 10.334 10.319 10.3309 10.3755 10.4512 10.5467
10.6426 10.7166 10.7487 10.7259 10.6426 10.4982 10.2941 10.0317 9.71388
9.34826 8.94711 8.52442 8.09258 7.66103 7.23679 6.8258 6.4341 6.06845
5.73571 5.44097 5.18484 4.96176 4.76092 4.56931 4.37505 4.16958 3.94856
3.71206 3.4642 3.21189 2.96232 2.72021 2.83392 3.03735 3.24122 3.44266
3.63888 3.82759 4.00719 4.17667 4.33551 4.4836 10.4459 10.4227 10.4059
10.4011 10.4136 10.4464 10.4971 10.5578 10.6158 10.6578 10.6723 10.6516
10.5905 10.4836 10.3213 10.0914 9.78551 9.40875 8.97972 8.5211 8.05128
7.58227 7.12169 6.67547 6.2503 5.85504 5.50053 5.19653 4.94653 4.74375
4.57236 4.41335 4.25036 4.07249 3.87463 3.65684 3.42347 3.18169 2.9391
2.70107 2.81453 3.01598 3.21727 3.416 3.60967 3.79616 3.97393 4.14198
4.29975 4.44709 10.5039 10.5032 10.5071 10.5179 10.5369 10.5641 10.5966
10.6294 10.6561 10.6714 10.6719 10.6561 10.6216 10.5606 10.4526 10.2643
9.9662 9.55993 9.07946 8.56435 8.0412 7.52351 7.01769 6.52807 6.06068
5.62615 5.24049 4.92101 4.67662 4.49896 4.36418 4.24419 4.11686 3.96924
3.79623 3.59856 3.38108 3.15117 2.91656 2.6831 2.79641 2.99559 3.19365
3.38884 3.57908 3.76255 3.93779 4.10384 4.2601 4.40639 10.5777 10.6041
10.6341 10.6665 10.6986 10.7265 10.7462 10.755 10.7524 10.7413 10.727
10.7157 10.7121 10.711 10.683 10.5615 10.2725 9.81101 9.24775 8.65295
8.06177 7.48614 6.92888 6.39081 5.87563 5.39456 4.96933 4.62791 4.38819
4.2401 4.14787 4.07101 3.98091 3.8634 3.71451 3.53637 3.33466 3.11696
2.89097 2.66278 2.77629 2.97335 3.16817 3.3596 3.54611 3.72617 3.89851
4.06221 4.2167 4.36174 10.6627 10.7211 10.7838 10.8458 10.8991 10.9349
10.9461 10.9313 10.8962 10.8526 10.8157 10.8016 10.8249 10.8905 10.9687
10.9517 10.6808 10.1371 9.46406 8.77474 8.10742 7.46947 6.85943 6.27384
5.71251 5.18541 4.71887 4.35259 4.11599 3.99751 3.94704 3.91038 3.85321
3.76139 3.63286 3.47146 3.28379 3.07753 2.86019 2.63785 2.75187 2.94715
3.13908 3.32702 3.5099 3.68655 3.85591 4.01715 4.16975 4.31344 10.7529
10.849 10.9527 11.0549 11.1411 11.1942 11.2007 11.1589 11.0815 10.9919
10.9165 10.8813 10.9101 11.0191 11.187 11.2776 11.0398 10.4326 9.67422
8.90613 8.16748 7.46924 6.81119 6.18674 5.59123 5.03173 4.53607 4.15149
3.91601 3.81709 3.79391 3.78283 3.7463 3.67084 3.55596 3.40666 3.22997
3.03342 2.82408 2.60776 2.72234 2.9161 3.10556 3.29042 3.47002 3.64348
3.80998 3.96883 4.11955 4.26188 10.8409 10.98 11.134 11.2902 11.4256
11.5095 11.5157 11.4392 11.3028 11.1461 11.0097 10.9268 10.9236 11.0163
11.184 11.2939 11.1014 10.5513 9.81928 9.02323 8.22693 7.47526 6.78003
6.13275 5.52412 4.9576 4.45857 4.07252 3.83622 3.73675 3.71362 3.70362
3.66945 3.59774 3.488 3.3451 3.17561 2.98641 2.78386 2.57325 2.68812
2.88038 3.06764 3.24983 3.42651 3.5971 3.76097 3.91757 4.0665 4.20752
10.9158 11.101 11.3134 11.5383 11.743 11.8765 11.8887 11.766 11.5476
11.2989 11.0777 10.9212 10.8499 10.8688 10.9499 10.9944 10.8549 10.4744
9.87805 9.09909 8.25815 7.46697 6.75309 6.10423 5.50652 4.95978 4.48364
4.11315 3.87462 3.75546 3.70617 3.67359 3.62409 3.54392 3.4311 3.28899
3.12289 2.93851 2.74123 2.53567 2.65033 2.84086 3.02601 3.20574 3.37982
3.54782 3.7093 3.86383 4.01108 4.15087 10.964 11.193 11.465 11.7668
12.0577 12.2603 12.2861 12.1053 11.7826 11.4223 11.1017 10.8582 10.7021
10.6264 10.6025 10.5728 10.4697 10.2396 9.78687 9.05285 8.20607 7.41346
6.71131 6.08481 5.51833 5.0092 4.57009 4.22287 3.98161 3.83482 3.74717
3.67932 3.60368 3.50676 3.38479 3.23906 3.07313 2.89128 2.69777 2.49638
2.61023 2.79868 2.9816 3.15897 3.33062 3.49625 3.65553 3.80814 3.95384
4.09246 10.9702 11.232 11.5515 11.9195 12.2917 12.566 12.6085 12.3673
11.9391 11.4713 11.0586 10.7344 10.4992 10.338 10.2252 10.1273 10.0085
9.81533 9.43167 8.78711 8.02277 7.29254 6.63963 6.0576 5.53552 5.07087
4.67066 4.34622 4.10284 3.9307 3.80616 3.70217 3.59778 3.48092 3.34671
3.19467 3.02668 2.84559 2.65455 2.4565 2.56895 2.75491 2.93541 3.11038
3.27967 3.44304 3.60026 3.75108 3.89531 4.03282 10.922 11.1965 11.5351
11.9311 12.3395 12.6467 12.6938 12.4151 11.9255 11.3953 10.9258 10.5469
10.2536 10.0278 9.84627 9.68354 9.50982 9.2769 8.90862 8.37073 7.74029
7.11469 6.53671 6.01292 5.54082 5.12018 4.75487 4.44989 4.20586 4.01484
3.86119 3.72686 3.59667 3.46066 3.31376 3.15442 2.98318 2.80173 2.6122
2.41679 2.52734 2.71045 2.88831 3.06078 3.22769 3.38887 3.5441 3.6932
3.83602 3.97246 10.8142 11.0769 11.3975 11.7671 12.1406 12.4117 12.4387
12.1648 11.6909 11.1696 10.6953 10.298 9.97396 9.70699 9.47693 9.26166
9.03507 8.76219 8.40432 7.95006 7.43562 6.9124 6.41288 5.94972 5.52674
5.14611 4.81049 4.52185 4.27894 4.07563 3.90146 3.74436 3.5936 3.44138
3.2831 3.1167 2.94193 2.75956 2.57096 2.37766 2.48597 2.66595 2.84097
3.01082 3.17533 3.33431 3.48758 3.635 3.77643 3.91181 8.87597 8.7725
8.65818 8.53174 8.39146 8.23538 8.06246 7.87767 7.70222 7.56786 7.4726
7.38242 7.27654 7.15127 7.00862 6.85115 6.68092 6.49957 6.30856 6.10935
5.90355 5.69291 5.47936 5.26482 5.05116 4.84001 4.63268 4.43005 4.23257
4.04023 3.85265 3.66919 3.48899 3.31116 3.13479 2.95907 2.78331 2.60692
2.42949 2.25069 2.35968 2.53906 2.71558 2.88823 3.05602 3.21802 3.3735
3.52196 3.66317 3.79713 9.03501 8.93381 8.82156 8.69711 8.55901 8.40572
8.23695 8.05815 7.88831 7.75331 7.65133 7.55434 7.44361 7.31478 7.16897
7.00813 6.83397 6.64789 6.45119 6.24534 6.032 5.81313 5.59091 5.36757
5.14527 4.92595 4.71113 4.50187 4.29868 4.10159 3.91015 3.72361 3.54101
3.36129 3.1834 3.0064 2.82945 2.65187 2.47311 2.29276 2.40547 2.58998
2.77147 2.94872 3.12047 3.28562 3.44333 3.59309 3.73475 3.86846 9.19987
9.10182 8.99282 8.87208 8.73876 8.59241 8.4342 8.26982 8.11244 7.97633
7.8601 7.74776 7.6261 7.49006 7.339 7.17364 6.99487 6.80359 6.60084
6.38796 6.16666 5.93907 5.70764 5.47492 5.24343 5.01538 4.79256 4.57619
4.36687 4.16464 3.96902 3.77915 3.59394 3.41219 3.23271 3.05441 2.87633
2.69763 2.51766 2.33589 2.45261 2.6426 2.82943 3.01155 3.18742 3.35569
3.51542 3.66613 3.8078 3.94077 9.37047 9.2763 9.17141 9.0554 8.92812
8.79003 8.64308 8.49199 8.34445 8.20703 8.07882 7.95202 7.81867 7.67424
7.51699 7.34643 7.16261 6.96582 6.75675 6.53654 6.30695 6.07026 5.82919
5.58667 5.34553 5.10832 4.87707 4.65316 4.43731 4.22957 4.02941 3.8359
3.64781 3.46383 3.28261 3.10292 2.92366 2.74387 2.56276 2.37965 2.5006
2.69634 2.88877 3.07597 3.25603 3.42734 3.58882 3.74006 3.88126 4.01303
9.54667 9.4569 9.35657 9.24564 9.12439 8.99375 8.85569 8.71358 8.57164
8.43286 8.29672 8.15941 8.01638 7.86417 7.7007 7.52476 7.33567 7.13319
6.91761 6.6899 6.4518 6.20578 5.95483 5.70223 5.45118 5.20453 4.96455
4.7328 4.51007 4.29645 4.09139 3.89387 3.70258 3.51607 3.33288 3.15161
2.97105 2.79009 2.6078 2.42338 2.5486 2.7502 2.94833 3.14068 3.3249
3.49905 3.66196 3.81333 3.95363 4.08382 9.72837 9.64331 9.5477 9.44168
9.32577 9.201 9.06906 8.93225 8.79297 8.65273 8.51127 8.36664 8.21614
8.05726 7.88795 7.70664 7.51218 7.30387 7.08166 6.84635 6.59967 6.34425
6.08338 5.82068 5.55967 5.30351 5.05469 4.81491 4.58505 4.36524 4.15491
3.953 3.75813 3.56873 3.38322 3.20009 3.01796 2.83563 2.65203 2.46619
2.59551 2.80277 3.00643 3.20374 3.39189 3.56862 3.73263 3.88381 4.02296
4.1514 9.91552 9.8354 9.74447 9.64297 9.5315 9.41105 9.283 9.14899
9.01056 8.86862 8.7231 8.57294 8.41644 8.25169 8.07683 7.89013 7.69012
7.47579 7.24682 7.00385 6.74864 6.48396 6.21337 5.94079 5.67005 5.40455
5.14696 4.89913 4.66201 4.43576 4.21984 4.01316 3.81428 3.62156 3.43331
3.2479 3.06384 2.87979 2.69455 2.50705 2.63998 2.85232 3.06094 3.26269
3.45431 3.63323 3.79809 3.94896 4.08698 4.21382 10.1082 10.0332 9.94685
9.84944 9.74157 9.62415 9.49838 9.36552 9.22673 9.0827 8.93351 8.77856
8.61668 8.44637 8.2659 8.07353 7.86761 7.64692 7.41097 7.1603 6.8967
6.62307 6.3432 6.06123 5.78124 5.50681 5.24076 4.98502 4.74063 4.50779
4.286 4.07416 3.87084 3.67432 3.48283 3.29464 3.10813 2.92186 2.73451
2.54491 2.68065 2.89707 3.10964 3.31488 3.50925 3.68991 3.85549 4.00622
4.1435 4.26926 10.3066 10.2369 10.1551 10.0614 9.95638 9.84101 9.71633
9.58346 9.44341 9.29682 9.14386 8.98419 8.81695 8.64087 8.45438 8.25573
8.04327 7.81568 7.57239 7.31394 7.04214 6.76001 6.47146 6.18081 5.89228
5.60954 5.3355 5.07216 4.82061 4.58113 4.35324 4.13591 3.92768 3.72684
3.53155 3.33997 3.15041 2.96129 2.77123 2.57897 2.71641 2.93557 3.15068
3.35816 3.55432 3.73624 3.90255 4.05357 4.19081 4.31634 10.511 10.4468
10.3694 10.2791 10.1765 10.0624 9.93794 9.80422 9.66221 9.51256 9.35552
9.19087 9.01791 8.83553 8.64228 8.43651 8.21661 7.98136 7.73022 7.4638
7.18396 6.8938 6.59729 6.29879 6.00253 5.71223 5.4308 5.16028 4.90179
4.65567 4.42152 4.19838 3.98482 3.77912 3.5794 3.38378 3.19046 2.99781
2.80436 2.6088 2.74672 2.96709 3.18319 3.39151 3.58842 3.77112 3.93826
4.09012 4.2282 4.35449 10.7216 10.6632 10.5904 10.5033 10.4025 10.2891
10.1642 10.029 9.88448 9.73139 9.56996 9.4 9.22086 9.03152 8.83063
8.61671 8.38834 8.14447 7.8848 7.61007 7.32224 7.02445 6.72062 6.41506
6.11191 5.81481 5.52662 5.24936 4.9842 4.73151 4.491 4.26175 4.04242
3.8313 3.62651 3.42615 3.22836 3.03145 2.83392 2.63444 2.77169 2.99185
3.20752 3.41538 3.61213 3.79515 3.96317 4.11638 4.25607 4.38405 10.9383
10.8863 10.8181 10.7339 10.6346 10.5214 10.3956 10.2585 10.1113 9.95469
9.78881 9.61341 9.4278 9.23095 9.0216 8.79848 8.56049 8.30693 8.03785
7.75425 7.45826 7.15301 6.84231 6.5303 6.22094 5.91769 5.62329 5.33972
5.06814 4.80897 4.56198 4.32635 4.10081 3.88372 3.67322 3.46741 3.26444
3.0626 2.86037 2.65646 2.79208 3.01091 3.22504 3.4315 3.62736 3.81033
3.97922 4.13407 4.27589 4.40621 11.1611 11.1158 11.0523 10.971 10.8729
10.7594 10.6324 10.4934 10.3436 10.1838 10.0139 9.83343 9.64148 9.43688
9.21846 8.98519 8.7364 8.47194 8.19235 7.89907 7.59441 7.28151 6.96405
6.64589 6.33071 6.02174 5.72153 5.43195 5.15412 4.88851 4.63493 4.39266
4.1605 3.93688 3.72004 3.50812 3.2993 3.09191 2.88448 2.67573 2.80907
3.02583 3.23774 3.44223 3.63677 3.8194 3.98903 4.14556 4.2897 4.42268
11.389 11.3509 11.2923 11.2136 11.1162 11.0022 10.8739 10.7332 10.5817
10.4197 10.2471 10.0628 9.86538 9.6534 9.42564 9.18139 8.92058 8.64377
8.35228 8.04808 7.73383 7.41268 7.08813 6.76372 6.44278 6.1282 5.82232
5.52684 5.24283 4.97073 4.7104 4.4612 4.222 3.99136 3.76759 3.54894
3.3337 3.12025 2.9072 2.69336 2.82402 3.03834 3.24775 3.45002 3.64304
3.82513 3.9953 4.15335 4.29975 4.43538 11.6202 11.5898 11.536 11.4595
11.3624 11.2476 11.1182 10.9768 10.825 10.6632 10.4904 10.3048 10.1039
9.88566 9.64873 9.39276 9.11846 8.82749 8.52219 8.20535 7.88006 7.54956
7.21714 6.88596 6.55891 6.23852 5.92681 5.62531 5.33498 5.05622 4.78892
4.53248 4.28586 4.04772 3.81652 3.59064 3.36848 3.14857 2.92961 2.71048
2.83832 3.0501 3.25698 3.45704 3.64849 3.82991 4.00041 4.15972 4.30809
4.44616 11.8514 11.8289 11.7797 11.7048 11.6073 11.4914 11.3615 11.221
11.0719 10.9142 10.7457 10.5631 10.3623 10.1402 9.89472 9.62614 9.33638
9.02867 8.70688 8.37495 8.03659 7.69516 7.35368 7.01483 6.68099 6.35421
6.03621 5.72829 5.43127 5.14553 4.87093 4.60691 4.35251 4.1065 3.86746
3.63394 3.40451 3.17783 2.95273 2.72818 2.85321 3.06257 3.26704 3.465
3.65493 3.83561 4.00623 4.16648 4.31646 4.4566 12.0772 12.0626 12.0173
11.943 11.8442 11.7269 11.5974 11.4605 11.3188 11.1714 11.0145 10.8422
10.6477 10.4253 10.1724 9.88988 9.58156 9.25323 8.91106 8.56066 8.20654
7.85217 7.50012 7.15244 6.81082 6.4768 6.15171 5.83664 5.53232 5.23906
4.95674 4.68478 4.42227 4.16808 3.92092 3.6795 3.44255 3.20891 2.97751
2.74743 2.86977 3.0769 3.27919 3.47523 3.66372 3.84359 4.01413 4.17499
4.32618 4.46797 12.2895 12.2821 12.2393 12.164 12.0625 11.9435 11.8159
11.6866 11.559 11.4316 11.2979 11.1475 10.9688 10.7523 10.4934 10.1943
9.86227 9.50723 9.13901 8.76556 8.39236 8.02274 7.65853 7.30075 6.95022
6.60779 6.27445 5.95115 5.63859 5.33708 5.04646 4.76615 4.49525 4.23268
3.97724 3.72779 3.48321 3.24248 3.00467 2.76894 2.88879 3.09395 3.29429
3.48859 3.67572 3.85474 4.02501 4.18617 4.33817 4.48115 12.477 12.475
12.4327 12.354 12.2478 12.1264 12.0024 11.886 11.7822 11.6888 11.5955
11.4853 11.3379 11.1364 10.8731 10.5524 10.1877 9.79642 9.39396 8.9915
8.5954 8.20833 7.83064 7.46173 7.10109 6.74881 6.40563 6.07254 5.75041
5.43961 5.13997 4.85086 4.57133 4.30025 4.03649 3.77899 3.52677 3.27892
3.03464 2.79316 2.91072 3.11419 3.31282 3.50556 3.69139 3.86952 4.03934
4.20051 4.35293 4.49668 12.6257 12.6259 12.5806 12.495 12.3812 12.2559
12.137 12.0393 11.9714 11.9313 11.9042 11.8623 11.7707 11.5985 11.3319
10.9796 10.5674 10.125 9.67695 9.23822 8.81547 8.40953 8.01801 7.63759
7.2658 6.90184 6.54654 6.20142 5.86782 5.54635 5.23682 4.93842 4.65003
4.37041 4.0984 3.83295 3.57315 3.31823 3.06745 2.82013 2.93563 3.13769
3.33484 3.52615 3.71077 3.88796 4.05718 4.21812 4.37063 4.51473 12.72
12.7175 12.6644 12.5671 12.4413 12.3087 12.194 12.1197 12.1009 12.1384
12.2131 12.2822 12.2855 12.1652 11.8948 11.4926 11.0079 10.4929 9.98464
9.50196 9.05008 8.62592 8.2223 7.83142 7.44772 7.06956 6.69869 6.33817
5.99046 5.65654 5.33607 5.02789 4.7305 4.4424 4.16228 3.88905 3.62185
3.35995 3.10271 2.84953 2.96319 3.1641 3.35997 3.55001 3.73347 3.90971
4.07823 4.23873 4.39105 4.53518 12.7466 12.7347 12.6673 12.5519 12.4068
12.2596 12.1433 12.0914 12.1312 12.2725 12.4948 12.7362 12.895 12.8622
12.5844 12.1004 11.5059 10.8902 10.306 9.77357 9.29343 8.85574 8.44572
8.04804 7.65211 7.25572 6.86367 6.48265 6.11719 5.76865 5.43618 5.11782
4.81141 4.515 4.22702 3.94628 3.6719 3.4032 3.13961 2.88061 2.99264
3.19264 3.38744 3.57637 3.75878 3.93409 4.10187 4.26181 4.41374 4.55763