# vtk DataFile Version 3.0
vtk output
ASCII
DATASET RECTILINEAR_GRID
FIELD FieldData 2
base_index 1 3 int
0 0 0
avtOriginalBounds 1 6 double
-10 10 -10 10 -10 10
DIMENSIONS 50 50 50
X_COORDINATES 50 float
-10 -9.59184 -9.18367 -8.77551 -8.36735 -7.95918 -7.55102 -7.14286 -6.73469
-6.32653 -5.91837 -5.5102 -5.10204 -4.69388 -4.28571 -3.87755 -3.46939 -3.06122
-2.65306 -2.2449 -1.83673 -1.42857 -1.02041 -0.612245 -0.204082 0.204082 0.612245
1.02041 1.42857 1.83673 2.2449 2.65306 3.06122 3.46939 3.87755 4.28572
4.69388 5.10204 5.5102 5.91837 6.32653 6.73469 7.14286 7.55102 7.95918
8.36735 8.77551 9.18367 9.59184 10
Y_COORDINATES 50 float
-10 -9.59184 -9.18367 -8.77551 -8.36735 -7.95918 -7.55102 -7.14286 -6.73469
-6.32653 -5.91837 -5.5102 -5.10204 -4.69388 -4.28571 -3.87755 -3.46939 -3.06122
-2.65306 -2.2449 -1.83673 -1.42857 -1.02041 -0.612245 -0.204082 0.204082 0.612245
1.02041 1.42857 1.83673 2.2449 2.65306 3.06122 3.46939 3.87755 4.28572
4.69388 5.10204 5.5102 5.91837 6.32653 6.73469 7.14286 7.55102 7.95918
8.36735 8.77551 9.18367 9.59184 10
Z_COORDINATES 50 float
-10 -9.59184 -9.18367 -8.77551 -8.36735 -7.95918 -7.55102 -7.14286 -6.73469
-6.32653 -5.91837 -5.5102 -5.10204 -4.69388 -4.28571 -3.87755 -3.46939 -3.06122
-2.65306 -2.2449 -1.83673 -1.42857 -1.02041 -0.612245 -0.204082 0.204082 0.612245
1.02041 1.42857 1.83673 2.2449 2.65306 3.06122 3.46939 3.87755 4.28572
4.69388 5.10204 5.5102 5.91837 6.32653 6.73469 7.14286 7.55102 7.95918
8.36735 8.77551 9.18367 9.59184 10
CELL_DATA 117649
POINT_DATA 125000
SCALARS temp float
LOOKUP_TABLE default
7.50722 7.39477 7.27344 7.14258 7.00146 6.84968 6.68814 6.52165 6.3615
6.21991 6.09542 5.97413 5.84497 5.7042 5.55184 5.38909 5.21724 5.03751
4.85106 4.65907 4.46278 4.26348 4.06249 3.86111 3.66051 3.46169 3.26542
3.07217 2.88216 2.69532 2.51138 2.32989 2.20366 2.38084 2.55904 2.73809
2.91768 3.09738 3.27662 3.4547 3.6308 3.80398 3.97323 4.13749 4.29578
4.44725 4.59129 4.7275 4.85578 4.97627 7.63818 7.52707 7.40687 7.27701
7.1369 6.98631 6.82638 6.66184 6.50288 6.35996 6.23177 6.10621 5.97321
5.82897 5.67323 5.50688 5.33104 5.14681 4.95531 4.75772 4.55538 4.34968
4.14212 3.93417 3.72717 3.52229 3.32041 3.12208 2.92755 2.73674 2.54934
2.36484 2.23674 2.4169 2.59844 2.78119 2.96486 3.14898 3.33295 3.51597
3.6971 3.87524 4.04914 4.21754 4.37925 4.53327 4.6789 4.81577 4.94388
5.06351 7.77367 7.66457 7.54638 7.41872 7.28135 7.1345 6.97973 6.82125
6.66643 6.5218 6.38635 6.25219 6.11192 5.96193 5.80136 5.63052 5.4501
5.26095 5.06405 4.86056 4.65183 4.43939 4.22491 4.01002 3.79628 3.585
3.37718 3.17348 2.97417 2.77916 2.5881 2.40041 2.27034 2.45345 2.63832
2.8248 3.01261 3.20127 3.39012 3.57829 3.7647 3.94805 4.12684 4.29956
4.46475 4.62123 4.76822 4.90542 5.03294 5.15126 7.9136 7.80705 7.69151
7.56681 7.43308 7.29095 7.14211 6.98985 6.83874 6.6922 6.54956 6.4064
6.25796 6.10128 5.93511 5.7592 5.57378 5.37938 5.17681 4.96714 4.75175
4.53231 4.31061 4.08851 3.86773 3.64977 3.43575 3.22641 3.02206 2.82262
2.62769 2.43664 2.30443 2.49044 2.67857 2.86874 3.06066 3.25386 3.44765
3.64107 3.83289 4.0216 4.20543 4.38254 4.55119 4.70998 4.85806 4.99522
5.12176 5.23838 8.05778 7.95419 7.84164 7.7202 7.5902 7.45246 7.30852
7.16071 7.01169 6.86319 6.71478 6.56409 6.40823 6.24498 6.07304 5.8918
5.70113 5.50126 5.2928 5.07676 4.85454 4.62789 4.39879 4.16928 3.94128
3.71644 3.49603 3.28084 3.07124 2.86715 2.66813 2.47349 2.33898 2.52777
2.71904 2.91275 3.10865 3.30627 3.50489 3.70347 3.90064 4.09467 4.28351
4.46495 4.63692 4.7978 4.9467 5.08349 5.20872 5.32338 8.20604 8.10565
7.99624 7.87797 7.75131 7.61708 7.47654 7.33131 7.18296 7.03243 6.87947
6.72279 6.56061 6.39134 6.21377 6.02714 5.83106 5.62555 5.41106 5.18851
4.95934 4.72541 4.48884 4.25186 4.01656 3.78476 3.55783 3.33665 3.12163
2.91268 2.70936 2.51093 2.37391 2.56531 2.75951 2.95653 3.15615 3.35789
3.56102 3.76444 3.96666 4.16571 4.35926 4.54474 4.71975 4.88246 5.0319
5.16811 5.29188 5.4045 8.35823 8.26121 8.15492 8.03959 7.9157 7.78402
7.64556 7.50148 7.35281 7.20012 7.04331 6.88165 6.714 6.53918 6.35615
6.16408 5.96246 5.75115 5.53048 5.30135 5.0652 4.82399 4.58001 4.33562
4.09309 3.85436 3.6209 3.39367 3.17311 2.95915 2.75133 2.54889 2.40913
2.60293 2.79979 2.99977 3.20269 3.40808 3.61518 3.82285 4.02947 4.2329
4.43055 4.61952 4.79712 4.96131 5.11112 5.2467 5.36911 5.47989 8.51424
8.42071 8.31748 8.2048 8.08314 7.95318 7.8158 7.67187 7.52217 7.36715
7.20678 7.04064 6.86796 6.68784 6.49937 6.30174 6.09437 5.87705 5.65006
5.41426 5.17116 4.92279 4.67154 4.41994 4.17036 3.92484 3.68495 3.45169
3.22554 3.00644 2.79395 2.58727 2.44456 2.64049 2.83966 3.04217 3.24784
3.45623 3.66654 3.87758 4.08766 4.29449 4.49527 4.68691 4.86646 5.03178
5.18186 5.31699 5.4384 5.54786 8.67402 8.5841 8.48388 8.37359 8.25369
8.12482 7.98777 7.84331 7.69208 7.53449 7.3706 7.20014 7.02256 6.83714
6.64306 6.43959 6.22616 6.00254 5.76901 5.52647 5.27645 5.02107 4.76282
4.50429 4.24795 3.99589 3.74974 3.51054 3.27879 3.05448 2.83716 2.62605
2.48014 2.67792 2.87901 3.08352 3.29129 3.50188 3.71445 3.92779 4.14011
4.34908 4.55178 4.74502 4.92577 5.09183 5.24221 5.37724 5.49828 5.60717
8.83749 8.75133 8.6541 8.546 8.4275 8.29926 8.16202 8.01654 7.86343
7.70308 7.5356 7.36081 7.17827 6.98736 6.78739 6.57767 6.35774 6.12742
5.88706 5.63762 5.38071 5.1185 4.85351 4.58838 4.32561 4.06731 3.81513
3.57012 3.33282 3.10325 2.88096 2.66522 2.51587 2.7152 2.91778 3.12373
3.3329 3.5448 3.75861 3.97304 4.18629 4.39601 4.59929 4.79298 4.97413
5.14055 5.2913 5.42672 5.5481 5.65729 9.00448 8.92229 8.82806 8.72202
8.60467 8.4767 8.33894 8.19216 8.03698 7.87379 7.70271 7.52357 7.33597
7.13934 6.93308 6.71664 6.48966 6.25214 6.00455 5.74798 5.48412 5.21516
4.94366 4.67224 4.40336 4.13912 3.88113 3.63047 3.38768 3.1528 2.92544
2.70487 2.55184 2.75243 2.95606 3.16288 3.37272 3.58507 3.79907 4.01341
4.22632 4.43547 4.63808 4.83116 5.01194 5.17839 5.32959 5.4658 5.58822
5.69852 9.17464 9.09664 9.00549 8.90142 8.78502 8.65713 8.51867 8.37051
8.2133 8.04743 7.87294 7.68959 7.49695 7.29445 7.08157 6.85788 6.62325
6.37791 6.12256 5.85847 5.58744 5.31171 5.03381 4.75629 4.48153 4.21157
3.94797 3.69178 3.44353 3.2033 2.97074 2.74515 2.58821 2.78978 2.99407
3.20121 3.41103 3.62302 3.83627 4.04951 4.26097 4.46846 4.66938 4.861
5.04081 5.20698 5.35863 5.49593 5.61986 5.73189 9.34728 9.27374 9.18573
9.08356 8.96799 8.84006 8.70092 8.55157 8.39272 8.22468 8.04735 7.86032
7.66297 7.45467 7.23492 7.0035 6.76055 6.50664 6.24282 5.97062 5.69201
5.40927 5.12488 4.84129 4.56075 4.28517 4.01604 3.75436 3.50065 3.255
3.01709 2.78629 2.62519 2.82751 3.0321 3.2391 3.44832 3.65924 3.87099
4.0823 4.2915 4.49654 4.69506 4.88463 5.06304 5.22867 5.3807 5.51917
5.64487 5.75899 9.52119 9.45234 9.36752 9.26717 9.15232 9.02437 8.88478
8.73478 8.57513 8.40602 8.22705 8.03744 7.83622 7.62255 7.39592 7.15631
6.90427 6.64086 6.36763 6.08647 5.79959 5.50935 5.21814 4.92828 4.64184
4.36059 4.08588 3.81864 3.55938 3.30818 3.06476 2.82852 2.66303 2.86592
3.07053 3.27701 3.48517 3.6945 3.90418 4.11299 4.31939 4.5215 4.71722
4.90441 5.08116 5.24604 5.3983 5.53787 5.66532 5.78161 9.69439 9.63039
9.54871 9.45001 9.33576 9.20789 9.06836 8.91872 8.75981 8.59155 8.41306
8.22288 8.01941 7.80133 7.56805 7.31982 7.05773 6.78359 6.49964 6.20832
5.91217 5.61362 5.31501 5.01845 4.7258 4.43861 4.15811 3.88512 3.62011
3.36315 3.114 2.87208 2.70198 2.90532 3.10977 3.31546 3.52223 3.72963
3.93688 4.14287 4.34619 4.54515 4.7379 4.92257 5.09751 5.26148 5.41376
5.55423 5.68326 5.80157 9.86383 9.80466 9.72589 9.62853 9.51469 9.38709
9.24844 9.10078 8.94505 8.78077 8.60622 8.41879 8.21576 7.995 7.75562
7.49822 7.22478 6.93817 6.64167 6.33854 6.03173 5.7238 5.41696 5.11306
4.81367 4.52011 4.23341 3.95431 3.68321 3.4202 3.16503 2.91718 2.74224
2.94597 3.15015 3.35493 3.56016 3.76545 3.97011 4.17315 4.37332 4.5691
4.75886 4.941 5.11407 5.27698 5.42907 5.57014 5.70043 5.82047 10.0251
9.97044 9.89402 9.79741 9.68363 9.55653 9.41992 9.27663 9.12773 8.97219
8.80693 8.6275 8.42923 8.2085 7.96389 7.69652 7.40973 7.1081 6.79651
6.47932 6.16008 5.84144 5.52537 5.21333 4.90652 4.60594 4.31244 4.02667
3.74901 3.47953 3.218 2.96392 2.78395 2.98807 3.19198 3.39582 3.59949
3.80267 4.00475 4.20488 4.40195 4.59464 4.78151 4.96116 5.13234 5.29406
5.44572 5.58708 5.71825 5.83962 10.1723 10.1213 10.0462 9.94927 9.83487
9.70842 9.57531 9.43957 9.30265 9.16277 9.01485 8.85145 8.66458 8.44805
8.19939 7.92059 7.61728 7.29683 6.96655 6.6324 6.29861 5.96779 5.64144
5.32043 5.0054 4.697 4.39588 4.10267 3.81775 3.54125 3.27294 3.01232
2.82712 3.03167 3.23539 3.4384 3.64062 3.8418 4.04145 4.23882 4.43296
4.62272 4.80684 4.98408 5.15334 5.31375 5.46475 5.60606 5.73772 5.85999
10.2978 10.2488 10.1733 10.0745 9.95827 9.83223 9.70409 9.57975 9.46156
9.34696 9.22806 9.09273 8.92742 8.72129 8.47001 8.1771 7.85216 7.50724
7.15336 6.79864 6.44798 6.10365 5.76622 5.43555 5.11149 4.79425 4.4844
4.18266 3.88957 3.60533 3.32972 3.06224 2.87161 3.07669 3.28034 3.48268
3.68367 3.88308 4.08053 4.27538 4.46682 4.65384 4.83536 5.01028 5.17762
5.33661 5.48672 5.62767 5.75943 5.88216 10.3931 10.3436 10.2651 10.1617
10.0415 9.91469 9.7923 9.68325 9.59178 9.51502 9.44149 9.35194 9.22349
9.03701 8.78468 8.47283 8.11824 7.74069 7.3568 6.97741 6.60783 6.24925
5.9006 5.56002 5.22619 4.89886 4.57874 4.26696 3.96444 3.67153 3.38803
3.11332 2.91712 3.1228 3.32655 3.52846 3.72846 3.9264 4.12193 4.31454
4.50353 4.68804 4.86712 5.03981 5.20525 5.36273 5.51177 5.65207 5.78357
5.90636 10.4493 10.3958 10.3106 10.1989 10.0709 9.94031 9.82243 9.73097
9.67412 9.65012 9.6436 9.625 9.55612 9.40299 9.15119 8.81237 8.41616
7.99505 7.57363 7.1657 6.77617 6.40409 6.04543 5.69561 5.35145 5.01232
4.67966 4.35567 4.04201 3.73929 3.44723 3.16496 2.96309 3.16945 3.37348
3.57517 3.77448 3.97124 4.16516 4.35583 4.54265 4.72488 4.9017 5.07227
5.23584 5.39177 5.5396 5.67904 5.80999 5.93249 10.4595 10.3975 10.3008
10.1755 10.0337 9.89287 9.77391 9.69787 9.68036 9.72397 9.81037 9.89622
9.91914 9.81923 9.56978 9.19222 8.73873 8.26159 7.7956 7.35697 6.94885
6.5666 6.20164 5.84482 5.49004 5.13654 4.78784 4.44846 4.12141 3.80757
3.5063 3.21626 3.0087 3.21583 3.42028 3.62199 3.82086 4.01672 4.20934
4.39835 4.58327 4.76346 4.93823 5.10684 5.26863 5.42302 5.56957 5.70801
5.8382 5.96015 10.4205 10.3449 10.2312 10.0855 9.92087 9.75819 9.62501
9.553 9.57086 9.69149 9.89658 10.1258 10.2814 10.2615 10.0179 9.58908
9.06351 8.52107 8.00763 7.54019 7.11865 6.73354 6.36983 6.01093 5.64551
5.2734 4.90312 4.54393 4.20083 3.8746 3.56372 3.26593 3.05287 3.26083
3.46585 3.66777 3.86642 4.06164 4.25321 4.44084 4.62413 4.80255 4.9755
5.14237 5.30253 5.45548 5.60079 5.73818 5.8675 5.98872 10.3343 10.2404
10.1042 9.93028 9.73107 9.52869 9.35711 9.26239 9.29494 9.48838 9.82935
10.2364 10.5646 10.654 10.4265 9.94485 9.34619 8.74202 8.18782 7.69977
7.27441 6.89796 6.548 6.19596 5.82023 5.42252 5.02265 4.6384 4.27688
3.93766 3.61738 3.31233 3.09424 3.30314 3.50886 3.71113 3.90974 4.10451
4.29526 4.48177 4.6637 4.84064 5.01207 5.17746 5.33624 5.48793 5.63212
5.76853 5.89698 6.01741 10.2085 10.0933 9.93065 9.72188 9.47541 9.21045
8.96393 8.79844 8.79934 9.04005 9.51904 10.1215 10.6418 10.8605 10.673
10.1678 9.52656 8.88692 8.31176 7.81751 7.40013 7.04496 6.72398 6.39164
6.0066 5.57445 5.13687 4.72422 4.34414 3.99301 3.66464 3.35352 3.13126
3.34125 3.54781 3.75056 3.94925 4.14372 4.33385 4.51946 4.70032 4.8761
5.04636 5.2106 5.36833 5.51906 5.66238 5.79798 5.92566 6.04533 10.0555
9.91883 9.72937 9.48346 9.18161 8.83321 8.46898 8.16412 8.056 8.29622
8.90935 9.71335 10.4172 10.7633 10.6496 10.1821 9.55902 8.92896 8.36142
7.8772 7.47615 7.14724 6.86162 6.55733 6.16609 5.69847 5.22537 4.78924
4.3955 4.03631 3.70264 3.38743 3.16229 3.3736 3.58113 3.78445 3.98331
4.17759 4.36724 4.55219 4.73228 4.90725 5.07674 5.24028 5.39738 5.54754
5.69033 5.8254 5.95252 6.07158 9.88977 9.73522 9.52416 9.24733 8.89489
8.45972 7.9526 7.44497 7.13601 7.31839 8.07651 9.09682 9.96047 10.4076
10.3819 10.001 9.44939 8.86927 8.33398 7.87106 7.48616 7.17267 6.9039
6.61353 6.2231 5.74527 5.26245 4.82081 4.4244 4.06375 3.72885 3.41218
3.18579 3.39866 3.60729 3.81123 4.0103 4.20447 4.39378 4.57828 4.75792
4.9325 5.10169 5.26504 5.42203 5.57211 5.7148 5.84972 5.97657 6.09524
9.72516 9.55999 9.33859 9.04795 8.66992 8.18149 7.56765 6.8767 6.34969
6.45111 7.3556 8.5654 9.52182 10.0038 10.0278 9.72505 9.25395 8.73683
8.24332 7.80423 7.42866 7.11152 6.8284 6.52501 6.14376 5.69436 5.23818
4.81399 4.42793 4.07324 3.74158 3.42635 3.20048 3.41511 3.62491 3.82949
4.02876 4.22284 4.41193 4.5962 4.77572 4.95036 5.1198 5.28355 5.44103
5.59162 5.73475 5.86996 5.99692 6.11548 9.57217 9.40588 9.18946 8.9104
8.54988 8.0816 7.48261 6.78883 6.242 6.34945 7.29575 8.49606 9.36721
9.75677 9.74275 9.46067 9.03831 8.57005 8.11245 7.69296 7.32016 6.98899
6.67941 6.35622 5.98855 5.58162 5.1686 4.77499 4.40807 4.06502 3.74035
3.42915 3.20548 3.42194 3.63289 3.83805 4.03746 4.23143 4.42036 4.6046
4.78436 4.95956 5.12986 5.29469 5.45335 5.6051 5.74926 5.88528 6.01278
6.13157 9.43654 9.27838 9.08187 8.83987 8.54199 8.17558 7.73811 7.2834
7.01614 7.27642 8.1056 9.0159 9.57839 9.73142 9.58488 9.25817 8.84192
8.39781 7.96324 7.55691 7.18427 6.84044 6.5114 6.17729 5.82335 5.45173
5.07766 4.71512 4.36978 4.04101 3.72567 3.42046 3.2004 3.41858 3.63055
3.83612 4.03552 4.22926 4.41803 4.60242 4.78277 4.95907 5.13091 5.29757
5.45817 5.6118 5.75763 5.895 6.02348 6.14286 9.31933 9.17573 9.00891
8.81991 8.61149 8.39184 8.18684 8.06694 8.17007 8.62007 9.29345 9.82172
9.98414 9.83733 9.51482 9.10905 8.67173 8.23292 7.81016 7.41197 7.03975
6.68904 6.35078 6.01429 5.67242 5.32568 4.9805 4.64355 4.31802 4.0037
3.69865 3.40071 3.18533 3.40496 3.6177 3.82341 4.0225 4.21579 4.4043
4.58893 4.77023 4.94821 5.12232 5.29162 5.45497 5.61122 5.75937 5.89863
6.02853 6.14884 9.2185 9.09165 8.95654 8.82208 8.70254 8.6215 8.61935
8.76009 9.11269 9.66259 10.2011 10.4351 10.2886 9.90952 9.44801 8.97538
8.51558 8.07623 7.66015 7.26781 6.89734 6.54464 6.20394 5.86941 5.53739
5.2077 4.88277 4.56526 4.2563 3.9553 3.66066 3.37073 3.16082 3.38152
3.59467 3.80016 3.99855 4.19101 4.37902 4.56391 4.74649 4.92674 5.10389
5.27667 5.44357 5.60316 5.75422 5.89586 6.02755 6.14909 9.13123 9.01934
8.91101 8.82044 8.76825 8.78316 8.90306 9.16924 9.59742 10.1134 10.5114
10.5768 10.2971 9.83079 9.31913 8.82388 8.35945 7.92473 7.5159 7.12944
6.76201 6.41009 6.07004 5.73868 5.41413 5.09606 4.78516 4.48208 4.18656
3.89743 3.61295 3.33152 3.12773 3.34913 3.56238 3.76726 3.96446 4.15558
4.34273 4.52782 4.71195 4.89505 5.07601 5.25305 5.42423 5.58775 5.7422
5.88658 6.02035 6.14333 9.05589 8.95497 8.8648 8.80187 8.78812 8.84971
9.01306 9.29443 9.67641 10.0742 10.3332 10.32 10.0378 9.60093 9.11856
8.64579 8.19881 7.77789 7.37941 6.99974 6.63594 6.2856 5.94672 5.61784
5.29821 4.98771 4.6864 4.39399 4.10942 3.83094 3.55645 3.28403 3.08707
3.30899 3.52221 3.72622 3.92181 4.11109 4.29695 4.48208 4.66798 4.85443
5.03982 5.22173 5.39768 5.56551 5.72359 5.87088 6.00684 6.13138 8.99313
8.89922 8.81883 8.76838 8.76812 8.83862 8.99428 9.23328 9.52409 9.79449
9.94431 9.89871 9.66077 9.29728 8.88061 8.45539 8.04023 7.63988 7.25403
6.8813 6.52049 6.1708 5.83179 5.5034 5.18585 4.87946 4.58431 4.29977
4.02437 3.75583 3.49153 3.22895 3.03976 3.26243 3.47589 3.67918 3.87305
4.06017 4.24441 4.42944 4.6172 4.80727 4.99738 5.18438 5.36518 5.53729
5.69894 5.84904 5.98711 6.11315 8.94555 8.85651 8.7806 8.73278 8.73037
8.78854 8.91317 9.09334 9.29598 9.4667 9.54365 9.48524 9.29192 8.99898
8.64983 8.27661 7.89691 7.51857 7.14484 6.7773 6.41715 6.06552 5.72358
5.39257 5.07373 4.76808 4.47608 4.19722 3.92984 3.67117 3.41782 3.16641
2.98643 3.21063 3.42525 3.62863 3.82136 4.00658 4.18925 4.3741 4.5636
4.7571 4.95162 5.14324 5.32837 5.50422 5.66892 5.82142 5.9613 6.08863
8.9164 8.83261 8.75996 8.7112 8.70044 8.73856 8.82675 8.95152 9.08407
9.18523 9.21629 9.15271 8.9928 8.75384 8.45995 8.13181 7.78345 7.42359
7.05814 6.69162 6.32784 5.97001 5.62092 5.2831 4.95887 4.65019 4.35832
4.08322 3.82324 3.57504 3.33417 3.09594 2.9272 3.15435 3.37178 3.577
3.77015 3.95467 4.13644 4.32123 4.51205 4.70812 4.90586 5.10082 5.28901
5.46747 5.63429 5.78845 5.9296 6.05788 8.90803 8.83201 8.76468 8.71623
8.69752 8.71605 8.77087 8.84948 8.92916 8.98234 8.98395 8.91831 8.78221
8.58262 8.33091 8.03811 7.71346 7.36511 7.00102 6.62876 6.25496 5.88501
5.52323 5.1733 4.83866 4.52247 4.22725 3.95394 3.70113 3.46474 3.23874
3.01653 2.86167 3.09371 3.31625 3.52582 3.72195 3.908 4.09033 4.27546
4.46691 4.66397 4.86295 5.05917 5.24852 5.42797 5.59563 5.75049 5.89222
6.021 8.92092 8.8563 8.79804 8.75361 8.73061 8.73372 8.7611 8.80278
8.84232 8.86104 8.84274 8.77698 8.65973 8.49138 8.27378 8.00883 7.69986
7.35378 6.98115 6.59362 6.20131 5.81181 5.43066 5.06237 4.71131 4.38213
4.07923 3.80534 3.55974 3.33731 3.12956 2.92704 2.78923 3.02831 3.25842
3.47512 3.67721 3.86761 4.05254 4.23872 4.43004 4.62629 4.82414 5.01921
5.20754 5.38619 5.55327 5.70777 5.84934 5.97813 8.95363 8.90427 8.85924
8.8232 8.80054 8.79339 8.79958 8.812 8.82005 8.81243 8.77985 8.71612
8.61739 8.47955 8.29566 8.05652 7.75664 7.40137 7.00659 6.59105 6.16966
5.75207 5.34429 4.95088 4.57672 4.22803 3.91197 3.63438 3.39613 3.19067
3.00561 2.82714 2.70974 2.9578 3.19741 3.42343 3.63397 3.83124 4.02077
4.2089 4.39973 4.59374 4.7885 4.98034 5.16574 5.34196 5.50718 5.66036
5.80109 5.92945 9.00337 8.97303 8.94541 8.92227 8.90476 8.89251 8.883
8.87175 8.8535 8.8237 8.77956 8.71979 8.64267 8.54184 8.40119 8.19456
7.89987 7.52029 7.08442 6.62451 6.16193 5.70749 5.26625 4.84156 4.43787
4.06274 3.72703 3.44169 3.21081 3.02603 2.86876 2.71877 2.62463 2.88281
3.13271 3.36886 3.58898 3.79449 3.98995 4.1809 4.37141 4.56267 4.75334
4.94073 5.12197 5.29467 5.4571 5.60823 5.7476 5.87519 9.06663 9.05918
9.05352 9.04838 9.04138 9.02919 9.00838 8.97658 8.93355 8.88153 8.82483
8.76862 8.71632 8.66352 8.58631 8.43182 8.14266 7.7178 7.21573 6.69304
6.1777 5.67914 5.1996 4.73976 4.30238 3.8955 3.53418 3.2367 3.01278
2.85192 2.72657 2.60783 2.53796 2.80594 3.06527 3.31064 3.5397 3.7533
3.95494 4.14923 4.33995 4.5288 4.71541 4.89811 5.07479 5.24348 5.40266
5.55135 5.68904 5.81565 9.13942 9.15913 9.18098 9.20045 9.21085 9.20459
9.17592 9.12375 9.05302 8.97355 8.89782 8.83887 8.80807 8.80867 8.816
8.7433 8.46631 7.97431 7.38451 6.78724 6.21268 5.66649 5.14748 4.653
4.18293 3.74447 3.35605 3.04414 2.8259 2.68875 2.59455 2.50494 2.45654
2.73185 2.99789 3.24988 3.4857 3.70582 3.91283 4.11039 4.30177 4.4889
4.67212 4.85061 5.02297 5.18772 5.34362 5.48978 5.6257 5.75125 9.21681
9.26842 9.32476 9.37787 9.41538 9.42286 9.38934 9.3137 9.20698 9.08867
8.98076 8.90413 8.87745 8.9127 8.99146 9.00352 8.75091 8.20677 7.54849
6.88887 6.25871 5.66632 5.11129 4.58841 4.09413 3.6335 3.22604 2.9035
2.6886 2.5674 2.4939 2.42323 2.38839 2.66608 2.93443 3.18921 3.42858
3.6527 3.86343 4.0635 4.25561 4.4416 4.62222 4.79725 4.96589 5.12711
5.27998 5.42374 5.55797 5.68251 9.29219 9.3803 9.47908 9.57746 9.65576
9.68828 9.65342 9.54769 9.39081 9.21624 9.05744 8.94133 8.88838 8.91044
8.98903 9.01653 8.79972 8.30013 7.66168 6.97945 6.30426 5.67089 5.0879
4.54836 4.04499 3.57997 3.17093 2.84826 2.63382 2.51336 2.44112 2.37249
2.33939 2.61299 2.87835 3.13158 3.37088 3.5961 3.8084 4.00973 4.20212
4.38719 4.56579 4.73806 4.90363 5.06185 5.21206 5.35369 5.48639 5.61003
9.35641 9.48373 9.63181 9.78787 9.924 9.99723 9.9661 9.82048 9.59418
9.34257 9.1134 8.93676 8.82844 8.79117 8.80082 8.77745 8.60427 8.23966
7.70754 7.03813 6.32819 5.6646 5.06768 4.52721 4.0321 3.58154 3.18876
2.87668 2.66018 2.52594 2.43622 2.35326 2.31048 2.5739 2.8314 3.07906
3.31491 3.53841 3.75009 3.95116 4.14305 4.32701 4.50382 4.67379 4.83681
4.9925 5.14045 5.28025 5.41163 5.53449 9.39768 9.56229 9.7609 9.98175
10.1899 10.3203 10.2993 10.1036 9.78944 9.44455 9.13314 8.88518 8.70818
8.59512 8.52165 8.44086 8.29897 8.05496 7.63639 7.00236 6.28827 5.624
5.03633 4.51281 4.04074 3.61723 3.25024 2.95342 2.73364 2.57932 2.46318
2.35692 2.29746 2.54692 2.79318 3.03231 3.26209 3.48154 3.69062 3.88994
4.08037 4.26276 4.43773 4.60561 4.7664 4.91993 5.06593 5.20415 5.33439
5.45661 9.40304 9.59562 9.83455 10.1113 10.3877 10.5776 10.5695 10.3223
9.91946 9.48513 9.09763 8.78386 8.54305 8.36179 8.21841 8.08521 7.93338
7.7212 7.35924 6.79681 6.14781 5.53227 4.98254 4.49263 4.05333 3.66176
3.32176 3.03969 2.81688 2.64381 2.50195 2.37156 2.2937 2.52815 2.76175
2.99076 3.21278 3.42653 3.6315 3.8278 4.01584 4.19609 4.36899 4.53476
4.69348 4.84506 4.98934 5.12617 5.25543 5.3771 9.36175 9.5653 9.82054
10.1211 10.4281 10.6456 10.641 10.3622 9.90819 9.42225 8.98838 8.63047
8.34325 8.11089 7.91382 7.73089 7.53811 7.29765 6.95112 6.47474 5.93135
5.39735 4.90531 4.45949 4.05722 3.69737 3.38166 3.11219 2.88761 2.7004
2.53813 2.38738 2.29299 2.51343 2.73457 2.95307 3.16661 3.37371 3.57357
3.76592 3.95079 4.12837 4.29888 4.46244 4.6191 4.76882 4.91151 5.04707
5.17543 5.29661 9.26932 9.4631 9.70343 9.98202 10.26 10.4478 10.4272
10.1533 9.71323 9.23561 8.79882 8.42682 8.1157 7.85142 7.61697 7.39409
7.16179 6.89275 6.55763 6.14936 5.69788 5.24389 4.81238 4.41262 4.0469
3.7161 3.42122 3.16252 2.93778 2.7413 2.5646 2.39859 2.29103 2.49943
2.70926 2.91777 3.12282 3.32294 3.51715 3.70495 3.88612 4.06059 4.22841
4.3896 4.54416 4.69204 4.83319 4.96753 5.09505 5.21575 7.60797 7.49445
7.37127 7.23745 7.09163 6.93225 6.75863 6.57506 6.39932 6.25753 6.14754
6.041 5.92083 5.78426 5.6331 5.46964 5.29574 5.11287 4.92238 4.72557
4.52386 4.31876 4.11184 3.90467 3.69867 3.49506 3.29476 3.09832 2.90594
2.71748 2.53251 2.35043 2.22434 2.40485 2.58688 2.7702 2.95445 3.13913
3.32361 3.5071 3.6887 3.86732 4.04179 4.21088 4.37342 4.5284 4.67508
4.81305 4.94223 5.06284 7.7443 7.63225 7.51036 7.37773 7.23322 7.07564
6.90491 6.7257 6.55393 6.41087 6.29458 6.18167 6.05678 5.91651 5.76197
5.59497 5.41706 5.22954 5.03367 4.83075 4.62229 4.40996 4.19555 3.98087
3.76758 3.55711 3.35055 3.14855 2.95134 2.75875 2.57031 2.3853 2.25751
2.44126 2.62699 2.8145 3.00343 3.19325 3.38328 3.57265 3.76028 3.94487
4.12498 4.29907 4.46566 4.62353 4.77186 4.91026 5.03881 5.15795 7.8856
7.77579 7.65617 7.52616 7.38513 7.2328 7.07025 6.90237 6.74014 6.59527
6.46633 6.33995 6.20527 6.05828 5.89864 5.72711 5.54459 5.35203 5.15043
4.94107 4.72548 4.5055 4.28315 4.06049 3.83945 3.62169 3.40846 3.20052
2.99815 2.80116 2.60901 2.42087 2.29125 2.47823 2.66769 2.85945 3.05319
3.24836 3.44424 3.63986 3.83397 4.02503 4.21124 4.39067 4.56147 4.72214
4.87176 5.01007 5.13736 5.25437 8.03183 7.92484 7.80822 7.68167 7.54516
7.39914 7.24535 7.0878 6.9329 6.78602 6.64627 6.5071 6.36196 6.20726
6.04169 5.86506 5.67755 5.47964 5.27208 5.056 4.83299 4.60502 4.37437
4.14336 3.91421 3.68881 3.46856 3.25436 3.04651 2.84483 2.6487 2.45722
2.3256 2.51573 2.70886 2.90486 3.10343 3.30404 3.50593 3.70805 3.90898
4.10688 4.29956 4.48459 4.65966 4.82296 4.97348 5.1111 5.23647 5.35071
8.18286 8.07913 7.96586 7.84305 7.71102 7.57062 7.42358 7.27275 7.12166
6.97276 6.82553 6.6768 6.52283 6.36088 6.18935 6.00742 5.81473 5.6113
5.39759 5.17462 4.94399 4.70783 4.46865 4.22907 3.99157 3.75828 3.53078
3.31006 3.09647 2.88982 2.68944 2.49436 2.36052 2.55368 2.75034 2.95045
3.15373 3.35969 3.56755 3.77619 3.98402 4.18892 4.38821 4.57893 4.75821
4.92387 5.07484 5.21123 5.33412 5.4451 8.3386 8.23839 8.12858 8.00935
7.88121 7.74508 7.60245 7.45526 7.30555 7.15456 7.00204 6.84637 6.68538
6.51706 6.33985 6.15263 5.95465 5.74557 5.5256 5.29563 5.0573 4.81288
4.56512 4.31692 4.07102 3.82976 3.59489 3.36748 3.14795 2.93608 2.7312
2.53224 2.39593 2.59192 2.79188 2.99583 3.20354 3.41453 3.62805 3.8429
4.05735 4.26899 4.47469 4.67087 4.85409 5.02176 5.17278 5.30755 5.42765
5.5352 8.49901 8.40249 8.2961 8.18011 8.05507 7.92189 7.78179 7.63617
7.48634 7.33307 7.1763 7.01518 6.84835 6.67432 6.49166 6.29911 6.09569
5.88081 5.65447 5.41746 5.17145 4.91887 4.66266 4.406 4.15184 3.90272
3.66051 3.42639 3.20078 2.98352 2.77388 2.57078 2.43172 2.63029 2.83322
3.04059 3.25223 3.4677 3.68622 3.90656 4.12687 4.34447 4.55583 4.75681
4.94341 5.11269 5.2635 5.39659 5.51403 5.61843 8.66418 8.57147 8.4684
8.35526 8.2326 8.10128 7.96234 7.81689 7.66593 7.51008 7.3494 7.18344
7.01129 6.83178 6.64362 6.44553 6.23638 6.01543 5.78255 5.53848 5.28491
5.0244 4.76009 4.49532 4.23326 3.97656 3.72722 3.48646 3.25476 3.03197
2.81737 2.60986 2.46778 2.66861 2.87408 3.08434 3.29925 3.51836 3.74089
3.96557 4.19043 4.41263 4.6283 4.83291 5.02203 5.19245 5.34305 5.47484
5.59028 5.69234 8.83425 8.74549 8.64566 8.53502 8.41414 8.28382 8.14504
7.9988 7.84596 7.68712 7.52246 7.35171 7.17425 6.98911 6.79511 6.591
6.37562 6.14818 5.9085 5.65732 5.39636 5.12828 4.85634 4.58401 4.31456
4.05074 3.7946 3.5474 3.30968 3.08129 2.86157 2.64941 2.50402 2.70676
2.91429 3.12678 3.34412 3.56585 3.79113 4.01864 4.24634 4.47126 4.68939
4.89601 5.08653 5.25764 5.40826 5.53954 5.65412 5.75512 9.00943 8.92482
8.82819 8.71977 8.60016 8.47018 8.33082 8.18305 8.02775 7.86551 7.69658
7.52084 7.33777 7.14655 6.94613 6.73532 6.51303 6.27851 6.03165 5.77323
5.50504 5.22978 4.95077 4.67151 4.3953 4.1249 3.86238 3.60903 3.36541
3.13143 2.90646 2.68943 2.54045 2.74472 2.95377 3.16779 3.38664 3.60982
3.83644 4.06511 4.29372 4.51927 4.73778 4.94463 5.13534 5.30673 5.45774
5.58949 5.70455 5.80599 9.1899 9.10971 9.01628 8.90988 8.79114 8.66097
8.52045 8.37063 8.21242 8.04645 7.87299 7.69196 7.50291 7.30508 7.09752
6.87919 6.64915 6.40683 6.15227 5.88637 5.611 5.32889 5.04332 4.75774
4.47539 4.19897 3.93052 3.67133 3.42199 3.18244 2.95212 2.73002 2.57717
2.78262 2.99265 3.20746 3.42686 3.65033 3.87689 4.10508 4.33276 4.55698
4.77398 4.97943 5.16926 5.34054 5.49227 5.62538 5.74216 5.8454 9.37573
9.30027 9.21012 9.10556 8.98734 8.85656 8.71446 8.56225 8.40091 8.23109
8.05304 7.8666 7.67129 7.46638 7.251 7.0243 6.78561 6.53462 6.27168
5.9979 5.71524 5.42642 5.13464 4.84321 4.55522 4.27326 3.99928 3.73453
3.47962 3.23454 2.99878 2.77141 2.6144 2.8207 3.0312 3.24609 3.46517
3.68783 3.91308 4.13938 4.36463 4.58601 4.80005 5.00293 5.19106 5.36191
5.51451 5.64955 5.7689 5.87495 9.56668 9.49634 9.40955 9.30666 9.18865
9.0569 8.91296 8.75826 8.5939 8.42051 8.2382 8.04664 7.84516 7.63295
7.40923 7.17336 6.92505 6.66443 6.39224 6.10991 5.81956 5.5239 5.22599
4.92894 4.6356 4.3484 4.06914 3.79903 3.53865 3.28804 3.04674 2.81388
2.65245 2.85931 3.06984 3.2842 3.50217 3.72313 3.94605 4.16942 4.39118
4.60873 4.81897 5.01858 5.20453 5.37467 5.5281 5.66525 5.78753 5.8969
9.76201 9.6972 9.61384 9.51242 9.39428 9.26126 9.11539 8.95845 8.79168
8.61562 8.43008 8.23433 8.02735 7.80808 7.57575 7.33 7.07103 6.7996
6.51703 6.22517 5.9264 5.62341 5.31911 5.01633 4.71766 4.42528 4.14082
3.8654 3.59955 3.34334 3.09635 2.85778 2.69166 2.89887 3.10907 3.32242
3.53868 3.75726 3.97714 4.19688 4.41456 4.62779 4.83386 5.02994 5.21351
5.38273 5.5368 5.6759 5.80108 5.91384 9.96017 9.90127 9.82131 9.72104
9.60234 9.46781 9.32017 9.16171 8.99386 8.81695 8.63026 8.43233 8.2214
7.99594 7.75506 7.49874 7.22789 6.94412 6.6496 6.34682 6.03845 5.72725
5.41592 5.10699 4.8027 4.50494 4.21514 3.93427 3.66282 3.40084 3.14796
2.90344 2.73237 2.93981 3.14945 3.36145 3.5756 3.79136 4.00779 4.22356
4.43691 4.64571 4.8476 5.04016 5.2213 5.38946 5.54388 5.6846 5.81234
5.92821 10.1583 10.1056 10.0288 9.92916 9.80935 9.67308 9.52413 9.36555
9.199 9.02445 8.84027 8.64371 8.43172 8.20179 7.95276 7.68507 7.40063
7.10238 6.79371 6.478 6.1584 5.83771 5.51838 5.20256 4.89209 4.58849
4.29295 4.00629 3.72893 3.46091 3.20187 2.95113 2.77487 2.9825 3.19149
3.40199 3.61385 3.8266 4.03943 4.25115 4.4602 4.66469 4.86257 5.05178
5.23052 5.39748 5.55194 5.69384 5.82363 5.94214 10.3519 10.3052 10.2311
10.1312 10.0095 9.87131 9.7219 9.56548 9.40407 9.23709 9.06141 8.87212
8.66387 8.43242 8.17597 7.89563 7.59498 7.27903 6.95302 6.62165 6.28864
5.95682 5.62828 5.30462 4.98716 4.67701 4.37508 4.08206 3.79831 3.52383
3.25828 3.00101 2.81934 3.02722 3.23561 3.44464 3.65423 3.86402 4.07332
4.28113 4.48608 4.68652 4.88065 5.06669 5.24309 5.40871 5.56289 5.70548
5.83675 5.95729 10.5339 10.4927 10.4202 10.3187 10.1941 10.0537 9.90508
9.7542 9.60372 9.45229 9.29451 9.12193 8.9252 8.69689 8.43397 8.13868
7.81748 7.47883 7.13088 6.78014 6.43103 6.08622 5.74715 5.41462 5.08923
4.7716 4.46238 4.16216 3.87127 3.58975 3.31725 3.05313 2.86587 3.07414
3.28208 3.48984 3.69738 3.90444 4.11048 4.31465 4.5158 4.71249 4.90313
5.08617 5.26027 5.4244 5.57797 5.72076 5.85292 5.97487 10.6946 10.6575
10.5848 10.4798 10.3506 10.2076 10.0614 9.9206 9.78911 9.66492 9.53938
9.39835 9.22552 9.00758 8.73914 8.42452 8.07546 7.70633 7.32982 6.9549
6.58662 6.22701 5.8763 5.53401 5.1997 4.87343 4.55567 4.24706 3.94804
3.65871 3.37872 3.1074 2.91437 3.12321 3.33098 3.53778 3.74362 3.94832
4.15147 4.35239 4.55009 4.74332 4.93071 5.1109 5.2827 5.4452 5.59783
5.74035 5.87284 5.99557 10.822 10.7864 10.7107 10.5995 10.4634 10.3166
10.1742 10.0486 9.94634 9.86549 9.79329 9.70682 9.57766 9.38138 9.10788
8.76563 8.37638 7.96482 7.55063 7.14574 6.75526 6.37964 6.01691 5.66444
5.32031 4.98394 4.65589 4.33719 4.02865 3.73051 3.44238 3.16349 2.96454
3.17418 3.38206 3.58829 3.79286 3.99565 4.19636 4.39443 4.58904 4.77912
4.96348 5.14094 5.31043 5.47114 5.62255 5.76441 5.89671 6.01964 10.9029
10.8647 10.782 10.6607 10.5141 10.361 10.222 10.1157 10.0539 10.0367
10.0475 10.0505 9.99653 9.83974 9.56028 9.17513 8.72557 8.25421 7.7907
7.34974 6.93504 6.5438 6.17022 5.80819 5.45352 5.10505 4.7641 4.43283
4.11285 3.80462 3.50763 3.2208 3.01585 3.22646 3.43478 3.64082 3.84456
4.0459 4.2446 4.44023 4.63211 4.81934 5.00088 5.17572 5.34292 5.50175
5.65173 5.79258 5.92427 6.04691 10.9256 10.8794 10.7845 10.6477 10.485
10.3197 10.1795 10.092 10.0791 10.1476 10.2792 10.422 10.4925 10.4035
10.1146 9.66039 9.12034 8.56674 8.04144 7.55983 7.12151 6.71815 6.33787
5.96885 5.60319 5.23948 4.88143 4.53388 4.19986 3.88003 3.57343 3.27841
3.06743 3.27919 3.4882 3.69439 3.89768 4.09797 4.29508 4.48866 4.67815
4.86281 5.04178 5.21415 5.37913 5.53606 5.68448 5.82411 5.95488 6.07684