# vtk DataFile Version 3.0
vtk output
ASCII
DATASET RECTILINEAR_GRID
FIELD FieldData 2
base_index 1 3 int
0 0 0
avtOriginalBounds 1 6 double
-10 10 -10 10 -10 10
DIMENSIONS 50 50 50
X_COORDINATES 50 float
-10 -9.59184 -9.18367 -8.77551 -8.36735 -7.95918 -7.55102 -7.14286 -6.73469
-6.32653 -5.91837 -5.5102 -5.10204 -4.69388 -4.28571 -3.87755 -3.46939 -3.06122
-2.65306 -2.2449 -1.83673 -1.42857 -1.02041 -0.612245 -0.204082 0.204082 0.612245
1.02041 1.42857 1.83673 2.2449 2.65306 3.06122 3.46939 3.87755 4.28572
4.69388 5.10204 5.5102 5.91837 6.32653 6.73469 7.14286 7.55102 7.95918
8.36735 8.77551 9.18367 9.59184 10
Y_COORDINATES 50 float
-10 -9.59184 -9.18367 -8.77551 -8.36735 -7.95918 -7.55102 -7.14286 -6.73469
-6.32653 -5.91837 -5.5102 -5.10204 -4.69388 -4.28571 -3.87755 -3.46939 -3.06122
-2.65306 -2.2449 -1.83673 -1.42857 -1.02041 -0.612245 -0.204082 0.204082 0.612245
1.02041 1.42857 1.83673 2.2449 2.65306 3.06122 3.46939 3.87755 4.28572
4.69388 5.10204 5.5102 5.91837 6.32653 6.73469 7.14286 7.55102 7.95918
8.36735 8.77551 9.18367 9.59184 10
Z_COORDINATES 50 float
-10 -9.59184 -9.18367 -8.77551 -8.36735 -7.95918 -7.55102 -7.14286 -6.73469
-6.32653 -5.91837 -5.5102 -5.10204 -4.69388 -4.28571 -3.87755 -3.46939 -3.06122
-2.65306 -2.2449 -1.83673 -1.42857 -1.02041 -0.612245 -0.204082 0.204082 0.612245
1.02041 1.42857 1.83673 2.2449 2.65306 3.06122 3.46939 3.87755 4.28572
4.69388 5.10204 5.5102 5.91837 6.32653 6.73469 7.14286 7.55102 7.95918
8.36735 8.77551 9.18367 9.59184 10
CELL_DATA 117649
POINT_DATA 125000
SCALARS temp float
LOOKUP_TABLE default
9.1755 9.07618 8.96655 8.84567 8.71254 8.56647 8.40845 8.24436 8.08844
7.95652 7.84719 7.7429 7.62942 7.50166 7.35942 7.20398 7.03678 6.85919
6.67253 6.47815 6.27752 6.07223 5.86396 5.65442 5.44523 5.23785 5.03344
4.83284 4.63652 4.4446 4.25687 4.07287 3.89196 3.7134 3.53645 3.36038
3.18454 3.00837 2.83143 2.65335 2.47393 2.29306 2.23494 2.40469 2.57043
2.73138 2.88694 3.03664 3.1802 3.31752 9.33556 9.23856 9.13104 9.01216
8.88107 8.73735 8.58225 8.42157 8.2682 8.13568 8.02272 7.91408 7.79681
7.66576 7.52032 7.36143 7.19026 7.00801 6.81592 6.61532 6.40777 6.195
5.9789 5.76141 5.5444 5.32954 5.1182 4.91135 4.70954 4.51291 4.32122
4.13396 3.95038 3.76965 3.59089 3.41328 3.23603 3.0585 2.8801 2.70041
2.51911 2.33601 2.27764 2.45122 2.62037 2.78422 2.94203 3.09334 3.2379
3.37567 9.50116 9.40733 9.30302 9.18766 9.06083 8.92269 8.77504 8.62309
8.47615 8.3427 8.22172 8.10329 7.97786 7.84061 7.69018 7.52671 7.35085
7.16344 6.9655 6.75831 6.54344 6.32277 6.09839 5.8725 5.6472 5.42442
5.20572 4.9922 4.78453 4.58285 4.38692 4.19614 4.00971 3.82666 3.64601
3.4668 3.28815 3.10928 2.92951 2.74828 2.56517 2.3799 2.32135 2.49889
2.67153 2.83824 2.9982 3.15092 3.29622 3.43417 9.67218 9.58221 9.48193
9.37106 9.24964 9.11835 8.97919 8.83622 8.69523 8.56068 8.43184 8.30316
8.1685 8.02387 7.86747 7.69872 7.51766 7.3247 7.12059 6.9065 6.684
6.4551 6.2221 5.98743 5.75349 5.52242 5.29599 5.07547 4.86158 4.65452
4.45403 4.25947 4.06992 3.88434 3.70164 3.52072 3.3406 3.16036 2.97922
2.79649 2.61163 2.42423 2.36555 2.54712 2.72325 2.89274 3.05469 3.20861
3.35439 3.49225 9.8484 9.7628 9.66701 9.56102 9.44516 9.32034 9.1884
9.05222 8.91514 8.77941 8.64454 8.50753 8.36464 8.21286 8.05031 7.87598
7.68942 7.49065 7.28014 7.05892 6.82858 6.59124 6.34939 6.10573 5.86291
5.62331 5.3889 5.16109 4.94069 4.72794 4.52257 4.32389 4.13094 3.94256
3.75756 3.57474 3.39298 3.21126 3.02868 2.84441 2.65779 2.46828 2.40947
2.59501 2.77455 2.94668 3.11043 3.26531 3.41135 3.54892 10.0296 9.9487
9.8576 9.75642 9.64565 9.52622 9.39964 9.26788 9.13291 8.9959 8.85657
8.71322 8.56354 8.40533 8.23686 8.0569 7.86467 7.65988 7.44279 7.2143
6.976 6.73012 6.47936 6.22665 5.97489 5.72668 5.48417 5.24889 5.02175
4.80303 4.59247 4.38934 4.19263 4.00112 3.81349 3.62847 3.44482 3.2614
3.07719 2.89125 2.70277 2.51111 2.45208 2.64139 2.82411 2.99867 3.164
3.31966 3.46581 3.603 10.2156 10.1396 10.0532 9.95657 9.85021 9.735
9.61213 9.483 9.34886 9.21041 9.06749 8.91911 8.76375 8.59976 8.42559
8.23996 8.0419 7.8309 7.60706 7.3712 7.12491 6.87054 6.61096 6.34932
6.08872 5.83198 5.58138 5.33858 5.10457 4.87965 4.6636 4.45568 4.25484
4.05979 3.86915 3.68154 3.49562 3.31015 3.12399 2.9361 2.74557 2.55161
2.49218 2.68485 2.87041 3.04711 3.21381 3.37014 3.51639 3.65326 10.4063
10.3354 10.2536 10.1612 10.0586 9.94656 9.82616 9.6984 9.56421 9.42407
9.27794 9.12517 8.96472 8.79527 8.61544 8.42397 8.21981 8.00233 7.77153
7.52819 7.27395 7.01124 6.74308 6.4728 6.20367 5.93864 5.68012 5.42986
5.18891 4.95764 4.73584 4.52279 4.31741 4.11838 3.92426 3.73357 3.5449
3.35691 3.16837 2.97814 2.78522 2.58873 2.52859 2.72401 2.9119 3.09038
3.25829 3.41529 3.56177 3.69857 10.6016 10.5359 10.4588 10.3702 10.2708
10.1612 10.0424 9.91513 9.78024 9.63814 9.48883 9.3319 9.16652 8.99161
8.80592 8.60825 8.39756 8.1732 7.93515 7.68421 7.42206 7.15123 6.87484
6.59633 6.31908 6.04614 5.77999 5.52243 5.27458 5.03686 4.80909 4.59057
4.38024 4.17676 3.97862 3.78431 3.59233 3.40125 3.20977 3.0167 2.82096
2.62164 2.56038 2.75779 2.94739 3.12726 3.29624 3.454 3.60099 3.73811
10.8014 10.7412 10.6686 10.5837 10.4871 10.3794 10.2614 10.1341 9.9981
9.8538 9.70126 9.54015 9.36977 9.18917 8.99723 8.79284 8.57502 8.34324
8.09752 7.83877 7.56872 7.28998 7.00574 6.71948 6.43461 6.1542 5.88077
5.61616 5.3615 5.11727 4.88334 4.65905 4.44335 4.23491 4.0322 3.83366
3.63773 3.44294 3.24793 3.05145 2.85242 2.64993 2.5871 2.78567 2.97632
3.15719 3.32711 3.48577 3.63362 3.77153 11.0055 10.951 10.8831 10.8017
10.7076 10.6013 10.4839 10.3561 10.2188 10.0722 9.9164 9.75109 9.57561
9.38904 9.19037 8.97861 8.75296 8.51306 8.25914 7.99221 7.71417 7.42766
7.13588 6.84229 6.55027 6.26285 5.98252 5.7111 5.44975 5.19899 4.95872
4.72836 4.50688 4.29297 4.08511 3.88172 3.6812 3.48205 3.28289 3.08247
2.8797 2.67372 2.60892 2.80785 2.99895 3.18043 3.35118 3.51088 3.65989
3.79901 11.2134 11.165 11.1018 11.0239 10.932 10.8269 10.7098 10.5816
10.443 10.2943 10.1355 9.96627 9.78574 9.59303 9.38719 9.16741 8.93314
8.68431 8.42145 8.14584 7.85951 7.56516 7.266 6.96537 6.66656 6.37248
6.08554 5.80753 5.53959 5.28227 5.03551 4.79878 4.57111 4.35122 4.13763
3.92876 3.72302 3.51891 3.31504 3.11019 2.90331 2.6936 2.62652 2.82519
3.01622 3.19798 3.36944 3.53023 3.68061 3.82126 11.4245 11.3824 11.324
11.2495 11.1597 11.0557 10.939 10.8105 10.6711 10.521 10.3601 10.1875
10.0024 9.80373 9.59048 9.36207 9.11832 8.85959 8.58687 8.30178 8.0066
7.70412 7.39746 7.08985 6.78439 6.48384 6.19047 5.90597 5.63148 5.36751
5.11408 4.87068 4.63642 4.41007 4.19019 3.97526 3.76371 3.55409 3.34504
3.13537 2.92411 2.71053 2.64097 2.83893 3.02952 3.21131 3.38332 3.54516
3.69699 3.83932 11.637 11.6016 11.5481 11.4769 11.389 11.2862 11.1701
11.0421 10.903 10.753 10.5914 10.4171 10.2286 10.0245 9.8039 9.56634
9.31216 9.04235 8.75854 8.46286 8.15793 7.84665 7.53206 7.21724 6.90502
6.59795 6.29812 6.0071 5.72596 5.45521 5.19488 4.9445 4.70325 4.46998
4.24331 4.02178 3.80393 3.58834 3.37372 3.15895 2.94312 2.72558 2.65344
2.85042 3.04036 3.22198 3.39438 3.55717 3.71039 3.85441 11.8487 11.8201
11.7714 11.7033 11.6173 11.5158 11.4009 11.2746 11.1378 10.9903 10.8309
10.6575 10.4677 10.2596 10.0321 9.78491 9.51915 9.2367 8.94011 8.63229
8.31628 7.99516 7.67189 7.34929 7.02992 6.71602 6.40946 6.11169 5.82366
5.54587 5.27834 5.02066 4.77205 4.53143 4.29752 4.06897 3.84439 3.62246
3.40197 3.1819 2.96138 2.73984 2.66507 2.86098 3.05015 3.23146 3.40411
3.56768 3.72213 3.86771 12.0558 12.034 11.9899 11.9244 11.84 11.7399
11.6273 11.5048 11.3733 11.2324 11.0796 10.9114 10.724 10.5143 10.2807
10.0234 9.74446 9.44718 9.13548 8.81335 8.48446 8.15209 7.81905 7.48784
7.16064 6.83933 6.52553 6.22052 5.92517 5.63993 5.36484 5.09949 4.84316
4.59483 4.35334 4.11741 3.88578 3.65724 3.43069 3.20515 2.97986 2.75427
2.67686 2.87169 3.06006 3.24098 3.41373 3.5779 3.73338 3.88031 12.2529
12.2375 12.1971 12.1335 12.0502 11.9518 11.8429 11.7271 11.6056 11.4772
11.338 11.1819 11.0026 10.7951 10.5568 10.2885 9.99391 9.67856 9.34845
9.0091 8.66501 8.31963 7.97553 7.63468 7.29875 6.9692 6.64736 6.33436
6.03101 5.73776 5.45462 5.18121 4.91681 4.66049 4.41114 4.1676 3.92872
3.69339 3.46062 3.22952 2.99937 2.76967 2.6896 2.88341 3.07099 3.25147
3.4242 3.58878 3.74505 3.89308 12.4328 12.4226 12.3847 12.3216 12.2384
12.1417 12.0382 11.933 11.828 11.721 11.6056 11.4721 11.3098 11.1101
10.869 10.588 10.2738 9.93554 9.58234 9.22195 8.85987 8.49958 8.14308
7.79154 7.44585 7.10697 6.77597 6.4539 6.1416 5.83954 5.54774 5.26582
4.99305 4.72851 4.47113 4.21985 3.9736 3.7314 3.49234 3.25559 3.0205
2.78659 2.70385 2.89673 3.08356 3.26356 3.43617 3.60097 3.7578 3.90666
12.5863 12.5792 12.5415 12.4767 12.392 12.2966 12.2002 12.1103 12.0301
11.9566 11.8801 11.7848 11.6529 11.4695 11.2277 10.9309 10.5906 10.222
9.83929 9.45309 9.06999 8.69308 8.32319 7.96012 7.60366 7.25412 6.91242
6.57975 6.25714 5.94521 5.644 5.35307 5.07164 4.79871 4.53325 4.2742
4.02059 3.7715 3.52611 3.28367 3.04357 2.80535 2.71989 2.91196 3.09809
3.27761 3.44998 3.61485 3.77202 3.92144 12.7026 12.6955 12.6546 12.5847
12.4955 12.3997 12.3111 12.2411 12.1956 12.1716 12.1549 12.1208 12.0394
11.8847 11.6448 11.3262 10.9495 10.5399 10.1191 9.70166 9.29483 8.90045
8.51715 8.1424 7.77429 7.4124 7.05783 6.71235 6.37757 6.05437 5.74283
5.44236 5.15201 4.87064 4.59711 4.33038 4.06948 3.81357 3.56188 3.31374
3.06858 2.82597 2.73776 2.92912 3.11462 3.29365 3.46573 3.63053 3.78783
3.93758 12.7713 12.7595 12.7107 12.6308 12.5321 12.4317 12.3489 12.3014
12.3003 12.3445 12.4151 12.4747 12.4736 12.366 12.1307 11.7801 11.3513
10.8863 10.4174 9.96347 9.53163 9.12097 8.72621 8.34096 7.96062 7.58408
7.2134 6.85191 6.50236 6.16611 5.84317 5.53264 5.23319 4.9434 4.66196
4.38771 4.11971 3.85712 3.59924 3.34546 3.09523 2.84817 2.7572 2.94799
3.13292 3.31148 3.48323 3.64785 3.80513 3.95499 12.7839 12.7616 12.6986
12.6018 12.4859 12.3724 12.2879 12.2596 12.3083 12.4389 12.6298 12.8262
12.9474 12.9134 12.6855 12.2879 11.7864 11.2492 10.7227 10.2294 9.77452
9.35244 8.95169 8.55947 8.16677 7.77204 7.38015 6.99787 6.63009 6.2787
5.94331 5.62232 5.31376 5.01573 4.72663 4.44517 4.17033 3.9013 3.63742
3.37812 3.12291 2.87143 2.77775 2.96808 3.15254 3.33067 3.50208 3.66646
3.82361 3.97343 12.7362 12.6971 12.6128 12.4903 12.3454 12.204 12.1007
12.0764 12.169 12.3974 12.7408 13.1238 13.4203 13.495 13.2796 12.8184
12.2245 11.6025 11.0143 10.4842 10.0134 9.59019 9.19447 8.80274 8.39805
7.97912 7.55785 7.14806 6.75785 6.38924 6.04064 5.70915 5.39177 5.08592
4.78961 4.50135 4.22005 3.94492 3.67533 3.41075 3.15075 2.89499 2.79872
2.98873 3.17283 3.35061 3.52171 3.68584 3.8428 3.99248 12.6308 12.5689
12.4562 12.2981 12.1092 11.917 11.7639 11.7091 11.8182 12.1376 12.6542
13.2671 13.7899 14.0112 13.8212 13.294 12.6057 11.9033 11.2622 10.7061
10.2325 9.82436 9.45164 9.0737 8.65795 8.20476 7.7421 7.29667 6.8802
6.49323 6.13159 5.79026 5.46484 5.15191 4.84905 4.55457 4.26734 3.98657
3.71167 3.44218 3.17772 2.91795 2.81929 3.00912 3.19299 3.37054 3.54141
3.70533 3.86211 4.0116 12.4771 12.3883 12.2423 12.04 11.7911 11.519
11.2696 11.1226 11.1881 11.5641 12.2547 13.1181 13.8908 14.2828 14.1479
13.592 12.849 12.1006 11.4327 10.8698 10.4093 10.0337 9.70565 9.36027
8.9352 8.43463 7.91815 7.43167 6.9884 6.5845 6.21169 5.86226 5.53021
5.21136 4.90288 4.60296 4.31046 4.02465 3.74501 3.47113 3.20267 2.93933
2.83858 3.02839 3.2122 3.38966 3.56044 3.72425 3.88089 4.03022 12.29
12.1742 11.9942 11.7447 11.4255 11.0472 10.6473 10.3207 10.243 10.6125
11.4698 12.5892 13.5976 14.1549 14.1169 13.6112 12.8928 12.1579 11.501
10.9528 10.5162 10.1794 9.90434 9.60291 9.17245 8.62229 8.05457 7.53394
7.07103 6.65591 6.27611 5.92153 5.58502 5.26181 4.94893 4.64455 4.34763
4.05754 3.77386 3.49627 3.22444 2.95811 2.85567 3.04564 3.22958 3.40715
3.57801 3.74186 3.89848 4.04772 12.0875 11.9488 11.7412 11.4523 11.0687
10.5801 9.99815 9.41157 9.0732 9.36171 10.3976 11.7901 13.0014 13.6872
13.7621 13.369 12.7449 12.0766 11.4632 10.9442 10.5303 10.2156 9.96536
9.68522 9.25725 8.69311 8.11174 7.58361 7.11752 6.70115 6.32053 5.9648
5.62652 5.3009 4.98507 4.67742 4.3771 4.08365 3.7968 3.51631 3.24191
2.97333 2.8697 3.06002 3.24433 3.42224 3.5934 3.75748 3.91423 4.06349
11.8863 11.7337 11.5124 11.2054 10.7888 10.2321 9.51419 8.69318 8.07343
8.25227 9.46953 11.1014 12.4288 13.1561 13.2927 13.0002 12.4813 11.8963
11.3385 10.8513 10.4494 10.1285 9.85638 9.55558 9.13923 8.61607 8.07432
7.57288 7.12319 6.7168 6.34212 5.98957 5.65246 5.32655 5.00942 4.69982
4.39725 4.1015 3.81248 3.53007 3.25404 2.9841 2.87989 3.07078 3.2557
3.43422 3.60594 3.77048 3.92756 4.07699 11.6993 11.5446 11.3286 11.035
10.6394 10.1072 9.40727 8.5821 7.9365 8.12223 9.39248 11.0115 12.227
12.8313 12.9148 12.6467 12.1905 11.6692 11.1585 10.6966 10.2968 9.95401
9.64132 9.3084 8.90834 8.44549 7.96706 7.51153 7.09125 6.70325 6.34003
5.99446 5.66129 5.33721 5.02045 4.71033 4.40674 4.10984 3.81976 3.53653
3.25993 2.98964 2.88555 3.07726 3.26307 3.4425 3.61506 3.78032 3.93795
4.08771 11.5335 11.3881 11.1959 10.9477 10.6296 10.2247 9.7285 9.20731
8.9208 9.30802 10.4351 11.6853 12.5026 12.7979 12.7055 12.376 11.9256
11.4347 10.9533 10.5074 10.1057 9.74245 9.39881 9.04636 8.66259 8.24895
7.82689 7.41735 7.02964 6.66366 6.31514 5.97927 5.65232 5.33197 5.01722
4.70797 4.40462 4.10773 3.81775 3.53485 3.25885 2.98935 2.88614 3.07893
3.26595 3.44662 3.62033 3.78657 3.94496 4.09524 11.3903 11.2621 11.106
10.923 10.716 10.4952 10.2926 10.1978 10.388 11.0268 11.9643 12.7297
13.0323 12.9372 12.6127 12.1767 11.696 11.2101 10.7427 10.3059 9.90239
9.52681 9.16697 8.80766 8.43807 8.05822 7.67713 7.30477 6.94637 6.60212
6.26935 5.94475 5.62571 5.31073 4.99945 4.69237 4.39041 4.09465 3.80589
3.52449 3.25031 2.9828 2.8813 3.07547 3.26404 3.44626 3.62142 3.7889
3.94826 4.09922 11.2671 11.1589 11.0414 10.9256 10.8293 10.7824 10.8364
11.0741 11.5865 12.3604 13.1327 13.5246 13.4296 13.0321 12.5241 11.998
11.4854 10.9968 10.5364 10.1054 9.70207 9.32116 8.95501 8.59549 8.23721
7.87972 7.52648 7.18161 6.8471 6.52231 6.20495 5.89234 5.58242 5.27416
4.96764 4.66383 4.36427 4.07058 3.78404 3.50527 3.23413 2.96985 2.87094
3.06678 3.25722 3.44131 3.61818 3.78712 3.94762 4.09939 11.1604 11.0701
10.9853 10.9236 10.9111 10.9846 11.1931 11.5913 12.2028 12.9371 13.5323
13.7083 13.4408 12.9286 12.3533 11.7955 11.2748 10.7905 10.338 9.91304
9.51171 9.12952 8.76173 8.40404 8.05386 7.71079 7.37603 7.05075 6.73491
6.42688 6.12408 5.8238 5.52398 5.22364 4.92301 4.62345 4.32706 4.03617
3.75269 3.47755 3.21059 2.95075 2.85525 3.05306 3.24565 3.43185 3.61062
3.78116 3.9429 4.09555 11.0683 10.9911 10.9283 10.9006 10.9358 11.0678
11.3314 11.7496 12.3032 12.8869 13.3028 13.3754 13.1023 12.6263 12.0874
11.5574 11.0582 10.5906 10.1502 9.7327 9.33437 8.95222 8.58372 8.22707
7.88142 7.54685 7.22379 6.91218 6.6108 6.31724 6.02831 5.74079 5.45216
5.16104 4.8675 4.57309 4.28051 3.99295 3.71312 3.44243 3.18063 2.92627
2.8349 3.03485 3.22976 3.41819 3.59893 3.77108 3.93406 4.08759 10.9916
10.9227 10.8717 10.8591 10.9109 11.0539 11.3078 11.6723 12.1096 12.5291
12.8022 12.8294 12.6102 12.227 11.772 11.3029 10.8443 10.4026 9.97777
9.56803 9.17198 8.78872 8.41784 8.05948 7.71427 7.38306 7.06642 6.76397
6.47398 6.19339 5.91826 5.6445 5.36861 5.08842 4.80349 4.51535 4.22729
3.94349 3.66772 3.40199 3.14603 2.89784 2.81103 3.01314 3.21031 3.40086
3.58342 3.75705 3.92114 4.07543 10.9334 10.8703 10.8245 10.815 10.864
10.9913 11.2058 11.4954 11.8195 12.1098 12.2864 12.2936 12.1287 11.8347
11.4661 11.0639 10.651 10.2375 9.82757 9.42342 9.02661 8.63877 8.26164
7.89718 7.54749 7.21453 6.89959 6.60265 6.32191 6.05378 5.79333 5.53517
5.27442 5.00763 4.7335 4.45332 4.17088 3.89145 3.62005 3.35949 3.10951
2.8676 2.78528 2.98924 3.18829 3.38054 3.56455 3.73931 3.90423 4.05908
10.8978 10.841 10.7991 10.7883 10.8267 10.9288 11.0971 11.3161 11.5501
11.7498 11.865 11.8626 11.7383 11.5123 11.2144 10.8704 10.498 10.1081
9.70832 9.30429 8.90098 8.50273 8.11345 7.73687 7.37663 7.03616 6.71807
6.42331 6.15043 5.89526 5.65154 5.41199 5.16981 4.91984 4.65961 4.38995
4.11498 3.84103 3.57442 3.31888 3.07439 2.83807 2.75955 2.96458 3.16474
3.35797 3.54277 3.71813 3.88347 4.03859 10.8876 10.8402 10.8049 10.7945
10.8231 10.9006 11.0269 11.1871 11.3531 11.4902 11.5659 11.5588 11.4634
11.2871 11.0433 10.7451 10.4036 10.0285 9.62975 9.21688 8.79848 8.38169
7.97245 7.57607 7.19781 6.84291 6.51603 6.21994 5.95399 5.71338 5.48977
5.27317 5.05408 4.82526 4.58287 4.32714 4.06237 3.7957 3.53458 3.28373
3.04363 2.81146 2.73541 2.94037 3.14051 3.33372 3.51846 3.69374 3.85899
4.014 10.9033 10.87 10.846 10.8408 10.8643 10.9227 11.0146 11.128
11.2427 11.3351 11.3841 11.3756 11.3035 11.1671 10.9676 10.706 10.3852
10.0131 9.60242 9.16802 8.72301 8.27743 7.83883 7.41361 7.00837 6.63055
6.28787 5.98618 5.72654 5.50325 5.30471 5.11673 4.92614 4.72327 4.50295
4.26492 4.01354 3.75647 3.50193 3.25551 3.01851 2.78874 2.71358 2.91715
3.11599 3.30805 3.49183 3.6663 3.8309 3.98542 10.9433 10.9289 10.9215
10.927 10.9513 10.9974 11.063 11.1397 11.2144 11.2729 11.3031 11.2967
11.2482 11.1516 10.9966 10.7697 10.4618 10.0779 9.63742 9.16445 8.67849
8.19234 7.71415 7.25034 6.80816 6.39738 6.03005 5.71724 5.46333 5.26144
5.09461 4.94209 4.78575 4.61328 4.41864 4.20148 3.96635 3.72115 3.47447
3.23261 2.99786 2.76912 2.69353 2.89456 3.09098 3.28089 3.46285 3.63585
3.7993 3.95297 11.0041 11.0133 11.0277 11.0497 11.081 11.1213 11.1679
11.2152 11.2569 11.2873 11.3027 11.3015 11.2812 11.2335 11.1365 10.9542
10.655 10.2398 9.74447 9.21097 8.66762 8.12885 7.60151 7.09024 6.60161
6.14728 5.74497 5.41412 5.16522 4.98994 4.86265 4.75266 4.63544 4.49632
4.32923 4.13451 3.91724 3.68545 3.44783 3.2111 2.97856 2.7504 2.67376
2.87154 3.06479 3.25184 3.43136 3.60237 3.76427 3.91679 11.0814 11.119
11.161 11.2059 11.251 11.2923 11.3255 11.3477 11.3587 11.3613 11.361
11.3648 11.3774 11.3935 11.3819 11.2714 10.9824 10.5087 9.92509 9.30626
8.68979 8.08848 7.5053 6.94116 6.40005 5.89424 5.44771 5.09165 4.84665
4.70283 4.62164 4.55873 4.48236 4.37643 4.23603 4.06306 3.86345 3.64544
3.41758 3.18678 2.95712 2.72998 2.65242 2.84677 3.03655 3.2204 3.39713
3.56583 3.72592 3.8771 11.1704 11.2417 11.3181 11.3942 11.4619 11.5116
11.5361 11.5338 11.5106 11.479 11.455 11.4558 11.4971 11.5844 11.6863
11.6878 11.419 10.858 10.1572 9.43723 8.739 8.07046 7.43008 6.81411
6.22237 5.66572 5.17314 4.78874 4.54602 4.43377 4.39786 4.37886 4.33858
4.26086 4.14291 3.98849 3.80452 3.59933 3.3812 3.15695 2.93111 2.70592
2.62807 2.81916 3.00555 3.18616 3.36 3.52628 3.68444 3.83417 11.265
11.3759 11.4954 11.614 11.7164 11.7846 11.8044 11.7739 11.7064 11.6263
11.5617 11.5404 11.5877 11.7212 11.9189 12.0356 11.8028 11.1745 10.3828
9.57855 8.80374 8.07021 7.37783 6.71952 6.09027 5.4978 4.97274 4.56749
4.32515 4.23366 4.22725 4.23603 4.2182 4.1583 4.05522 3.91403 3.74217
3.54774 3.33851 3.12094 2.89965 2.67741 2.6 2.78815 2.97139 3.14894
3.31998 3.48386 3.64008 3.78834 11.3571 11.5132 11.6856 11.8611 12.0155
12.1165 12.1365 12.0697 11.9401 11.7894 11.6605 11.5886 11.602 11.7182
11.9157 12.053 11.8687 11.3016 10.5385 9.70449 8.86782 8.07672 7.34408
6.66087 6.01717 5.41681 4.88779 4.4806 4.23701 4.14455 4.13779 4.14733
4.13167 4.07548 3.97772 3.8433 3.67919 3.49276 3.29095 3.07963 2.86321
2.64462 2.56826 2.75375 2.93414 3.10885 3.27728 3.43887 3.5932 3.74002
11.4356 11.6401 11.8739 12.1217 12.3493 12.5029 12.5296 12.4146 12.1987
11.951 11.7325 11.5827 11.5237 11.5614 11.6662 11.7334 11.6051 11.2193
10.6016 9.78608 8.90147 8.06776 7.31489 6.6299 5.99799 5.41919 4.91527
4.5253 4.27943 4.1653 4.12949 4.11371 4.0806 4.01452 3.91283 3.77884
3.61811 3.43673 3.24057 3.03465 2.82296 2.60834 2.5334 2.71639 2.89415
3.06626 3.23225 3.39169 3.54423 3.68966 11.4861 11.7365 12.033 12.3618
12.6803 12.907 12.9484 12.7725 12.447 12.0815 11.7579 11.5158 11.3668
11.3036 11.2961 11.2835 11.1933 10.9678 10.5037 9.73635 8.84533 8.00994
7.26963 6.60881 6.01085 5.47319 5.01004 4.64602 4.3976 4.25332 4.17517
4.12012 4.05761 3.97243 3.86002 3.72147 3.56045 3.38149 3.18918 2.98763
2.78025 2.56961 2.49622 2.67676 2.85202 3.02169 3.1854 3.34281 3.49365
3.63774 11.4926 11.7775 12.1238 12.5223 12.9264 13.2288 13.2882 13.049
12.6123 12.1334 11.7122 11.3845 11.1512 10.9967 10.8942 10.8081 10.7002
10.5134 10.1225 9.45054 8.64775 7.8793 7.19199 6.57926 6.02959 5.54057
5.12029 4.78173 4.5315 4.35967 4.24089 4.14571 4.05097 3.94316 3.81659
3.67048 3.50663 3.32806 3.13809 2.93991 2.73628 2.52942 2.45756 2.63559
2.80839 2.9757 3.13724 3.29272 3.44194 3.58473 11.4421 11.7402 12.1066
12.5344 12.9767 13.3138 13.378 13.0994 12.5979 12.053 11.5716 11.1857
10.8904 10.6667 10.4904 10.3344 10.1671 9.93665 9.56112 9.00273 8.34327
7.68713 7.08051 6.53072 6.03536 5.59445 5.21261 4.89579 4.64528 4.45299
4.30221 4.17335 4.04972 3.9202 3.77902 3.62423 3.45624 3.27676 3.08803
2.89238 2.69196 2.4886 2.41812 2.59355 2.76389 2.92888 3.0883 3.24191
3.38954 3.53108 11.3292 11.6148 11.9622 12.3622 12.7675 13.0664 13.1093
12.8353 12.3501 11.8142 11.3275 10.9218 10.5934 10.3255 10.0969 9.88419
9.6595 9.38534 9.01988 8.5503 8.01486 7.46857 6.94638 6.46209 6.02002
5.62279 5.27359 4.97495 4.726 4.52041 4.34708 4.19295 4.04626 3.89837
3.74405 3.58089 3.40845 3.22745 3.03928 2.84556 2.64789 2.44774 2.37848
2.55122 2.71905 2.88173 3.03905 3.19082 3.3369 3.47717 9.29863 9.19852
9.08715 8.96317 8.82474 8.66975 8.49707 8.31187 8.13653 8.00464 7.91429
7.82957 7.72844 7.60695 7.46713 7.31165 7.14265 6.96181 6.77062 6.57061
6.36344 6.15096 5.9352 5.71821 5.502 5.28833 5.07866 4.87396 4.67478
4.48114 4.2927 4.10877 3.92848 3.75085 3.57492 3.39979 3.22467 3.04892
2.87203 2.6936 2.51338 2.33123 2.27351 2.44735 2.61688 2.78122 2.93964
3.0916 3.23682 3.37523 9.46525 9.36766 9.25862 9.1369 9.00094 8.84908
8.68097 8.5023 8.33311 8.2008 8.10358 8.0119 7.90589 7.78088 7.63797
7.47919 7.30628 7.12067 6.9237 6.71686 6.5019 6.28086 6.05603 5.8298
5.60451 5.38223 5.16466 4.95298 4.7478 4.5492 4.35677 4.16972 3.98705
3.80764 3.63035 3.45416 3.27813 3.10149 2.9236 2.74394 2.56215 2.37799
2.3203 2.49861 2.67208 2.83965 3.00049 3.15403 3.30007 3.43863 9.63796
9.54383 9.43837 9.32072 9.18997 9.04562 8.88885 8.72564 8.56988 8.43668
8.32469 8.21703 8.09971 7.96732 7.81913 7.65582 7.4783 7.28745 7.08431
6.87025 6.64705 6.41693 6.18246 5.9464 5.71142 5.47995 5.25393 5.03474
4.82311 4.61913 4.42236 4.23191 4.04665 3.8653 3.68659 3.50933 3.33244
3.15502 2.97627 2.79556 2.61236 2.4263 2.36882 2.55184 2.7294 2.90021
3.06331 3.21815 3.36461 3.50291 9.81668 9.72678 9.62581 9.51331 9.38911
9.25366 9.10898 8.96006 8.81497 8.6807 8.55634 8.43367 8.30424 8.16324
8.00875 7.84023 7.65763 7.46121 7.25164 7.03006 6.79827 6.55867 6.31413
6.06777 5.82263 5.58149 5.34657 5.11943 4.90092 4.69115 4.48965 4.29545
4.10731 3.9238 3.74349 3.56506 3.38728 3.2091 3.02958 2.84794 2.66347
2.47564 2.4185 2.60643 2.78816 2.96213 3.12726 3.28304 3.42952 3.56714
10.0013 9.91615 9.82014 9.71317 9.59551 9.46812 9.33306 9.19386 9.05497
8.91956 8.78711 8.65361 8.51423 8.36527 8.20449 8.03054 7.84265 7.64048
7.42428 7.19499 6.95441 6.70509 6.45022 6.19328 5.93772 5.68661 5.44247
5.20705 4.98128 4.76533 4.5587 4.36037 4.16898 3.98298 3.80082 3.621
3.44218 3.26315 3.08283 2.90027 2.7146 2.52509 2.46837 2.66126 2.84713
3.02411 3.191 3.34736 3.49347 3.63006 10.1916 10.1116 10.0207 9.91913
9.80729 9.68631 9.55793 9.42458 9.28878 9.15213 9.01435 8.87339 8.7264
8.57066 8.40399 8.22465 8.03136 7.8233 7.60035 7.36325 7.11379 6.85471
6.58947 6.32193 6.05589 5.79477 5.54129 5.29738 5.06409 4.84162 4.62948
4.42659 4.23152 4.04263 3.85823 3.6767 3.49654 3.31642 3.13511 2.95151
2.76457 2.57336 2.51701 2.71469 2.9045 3.08423 3.25258 3.40923 3.55473
3.69013 10.3877 10.313 10.2273 10.1306 10.0236 9.90743 9.7834 9.65327
9.51864 9.38047 9.2387 9.09219 8.93913 8.77748 8.60522 8.42046 8.22159
8.00745 7.7776 7.53265 7.27436 7.00566 6.73027 6.45238 6.17612 5.90516
5.64245 5.39004 5.14909 4.91984 4.70182 4.49395 4.29474 4.10247 3.91535
3.73163 3.54969 3.36806 3.18538 3.0004 2.81193 2.61886 2.56265 2.76464
2.95794 3.14007 3.30962 3.46642 3.6113 3.74562 10.5896 10.5204 10.4397
10.3475 10.2446 10.1318 10.0104 9.88173 9.74699 9.60691 9.46155 9.31026
9.15181 8.98456 8.80666 8.61619 8.41135 8.19075 7.95377 7.70091 7.43396
7.15596 6.8709 6.5832 6.29723 6.01689 5.74527 5.48454 5.23592 4.99973
4.77554 4.56227 4.35842 4.16223 3.97182 3.78533 3.60101 3.41726 3.23262
3.04572 2.85525 2.65995 2.60342 2.80887 3.00498 3.18906 3.35964 3.51668
3.66124 3.7949 10.7974 10.734 10.6582 10.5701 10.4705 10.3601 10.2401
10.1117 9.97589 9.83338 9.68433 9.52835 9.36452 9.19146 9.00747 8.81065
8.59915 8.37151 8.12702 7.86615 7.59073 7.30392 7.00983 6.71308 6.41818
6.12914 5.84913 5.58041 5.32426 5.08107 4.85046 4.63141 4.42243 4.22174
4.02738 3.83741 3.64998 3.46338 3.27603 3.08648 2.89334 2.69529 2.63778
2.84554 3.04358 3.2291 3.40065 3.55825 3.70305 3.83675 11.0115 10.9541
10.8832 10.7989 10.7019 10.5931 10.4737 10.3446 10.207 10.0616 9.9085
9.74755 9.57796 9.39852 9.20766 9.00357 8.78448 8.54897 8.29641 8.02732
7.74361 7.44848 7.14613 6.84121 6.53828 6.24134 5.95361 5.67736 5.41392
5.16375 4.92655 4.70137 4.48676 4.28095 4.08195 3.88774 3.69639 3.50609
3.31519 3.12217 2.92562 2.72423 2.665 2.8738 3.07279 3.25925 3.43176
3.59033 3.73608 3.87066 11.2321 11.1811 11.1151 11.0344 10.9396 10.8318
10.7121 10.5817 10.4418 10.293 10.1356 9.96934 9.79352 9.607 9.40834
9.19589 8.96807 8.72369 8.46231 8.18463 7.89266 7.58963 7.27973 6.9675
6.65742 6.35342 6.05865 5.77537 5.50494 5.24787 5.00396 4.77233 4.55161
4.34006 4.13568 3.93642 3.7403 3.54543 3.35014 3.15287 2.95222 2.74697
2.68536 2.89403 3.09308 3.28002 3.45347 3.61338 3.76071 3.89694 11.4592
11.4149 11.354 11.2767 11.1837 11.0764 10.956 10.824 10.6815 10.5292
10.3674 10.1957 10.0133 9.81913 9.61179 9.38988 9.15212 8.8977 8.62657
8.3397 8.03927 7.72853 7.41154 7.09267 6.77618 6.46583 6.16463 5.87479
5.59764 5.33378 5.08304 4.84467 4.61737 4.39944 4.18895 3.98384 3.7821
3.58186 3.38141 3.17922 2.97394 2.76447 2.70003 2.90769 3.10613 3.29314
3.46746 3.62891 3.77822 3.91663 11.6926 11.6556 11.5999 11.5258 11.4343
11.3269 11.2055 11.0718 10.9269 10.7715 10.6058 10.429 10.2403 10.0382
9.82153 9.58913 9.34019 9.07444 8.79239 8.49545 8.18602 7.86738 7.5434
7.21821 6.89575 6.57952 6.27233 5.97625 5.69262 5.422 5.16433 4.91892
4.68457 4.45967 4.24234 4.03061 3.82249 3.61615 3.4099 3.20228 2.99203
2.77816 2.71067 2.91678 3.11419 3.30098 3.476 3.63899 3.79043 3.93127
11.9313 11.9021 11.8517 11.7806 11.6901 11.5825 11.46 11.3248 11.1783
11.0211 10.8528 10.6723 10.4781 10.2685 10.0423 9.79852 9.53709 9.2585
8.96403 8.65572 8.3363 8.0091 7.67781 7.34619 7.01782 6.69584 6.38282
6.08066 5.79059 5.51319 5.24842 4.99567 4.75382 4.52138 4.29657 4.07751
3.86234 3.64929 3.43677 3.22338 3.00796 2.78965 2.71905 2.92338 3.11956
3.30593 3.48147 3.64584 3.7993 3.94256 12.1735 12.1526 12.1075 12.039
11.949 11.8408 11.7175 11.5818 11.4354 11.2787 11.1105 10.9289 10.7314
10.5156 10.28 10.0241 9.74865 9.45528 9.14639 8.82486 8.49392 8.157
7.81755 7.47895 7.14432 6.81638 6.49737 6.18899 5.89236 5.60801 5.33591
5.07549 4.82572 4.58523 4.35237 4.12541 3.90264 3.68241 3.46325 3.24387
3.02319 2.80045 2.72677 2.92933 3.12422 3.31006 3.48592 3.65142 3.80667
3.95214 12.4157 12.4034 12.3633 12.2967 12.2067 12.0975 11.9739 11.8395
11.6962 11.5441 11.3809 11.2029 11.0059 10.7863 10.542 10.2732 9.98163
9.67077 9.3446 9.00726 8.66265 8.31431 7.96545 7.61892 7.27729 6.94279
6.6173 6.30229 5.99872 5.70707 5.42729 5.15884 4.90077 4.65181 4.41046
4.17517 3.94438 3.71664 3.49059 3.26505 3.03905 2.8119 2.7352 2.93608
3.12974 3.31499 3.49099 3.65736 3.81407 3.96143 12.6523 12.6484 12.6127
12.5469 12.4557 12.3454 12.2225 12.0922 11.957 11.8161 11.6656 11.4989
11.3089 11.0896 10.8379 10.5546 10.2438 9.91129 9.56374 9.20699 8.84585
8.48395 8.12407 7.76837 7.41871 7.07673 6.74392 6.42149 6.11032 5.81081
5.52289 5.24603 4.97932 4.72157 4.47143 4.22751 3.98846 3.75298 3.51988
3.28808 3.05669 2.82505 2.74537 2.94474 3.13726 3.32188 3.49788 3.66483
3.82266 3.97153 12.8747 12.8785 12.8457 12.7792 12.6854 12.5735 12.4528
12.3308 12.2108 12.0914 11.9657 11.8227 11.65 11.4374 11.1799 10.8795
10.5439 10.1834 9.80838 9.42736 9.04613 8.66825 8.29566 7.92947 7.57055
7.21985 6.87847 6.54748 6.2277 5.91953 5.62286 5.33716 5.06149 4.79474
4.53565 4.28299 4.03556 3.79224 3.55199 3.31383 3.07694 2.84071 2.75801
2.95607 3.14754 3.33152 3.50736 3.67465 3.83325 3.98325 13.0712 13.0808
13.0487 12.9787 12.8802 12.766 12.6494 12.5411 12.4465 12.3634 12.2809
12.1809 12.042 11.846 11.5844 11.2616 10.8918 10.4931 10.082 9.67036
9.26499 8.86877 8.48208 8.10431 7.73488 7.37394 7.02228 6.68104 6.3512
6.03324 5.72705 5.43202 5.14715 4.87128 4.60322 4.34182 4.08603 3.83486
3.58741 3.34281 3.1003 2.85929 2.77353 2.97044 3.16096 3.34429 3.51984
3.68723 3.8463 3.99705 13.2269 13.239 13.2039 13.1268 13.0205 12.9024
12.7912 12.7029 12.6465 12.62 12.6078 12.5807 12.5017 12.3376 12.0732
11.7176 11.2977 10.8451 10.3857 9.93571 9.50221 9.08616 8.68504 8.29531
7.91429 7.54114 7.17675 6.82283 6.48087 6.15163 5.83496 5.53006 5.23577
4.95077 4.67382 4.40381 4.13977 3.88084 3.6262 3.3751 3.12684 2.88087
2.79196 2.98789 3.17755 3.36023 3.53539 3.70269 3.86193 4.01309 13.3258
13.3351 13.2918 13.2026 13.0836 12.9579 12.8513 12.7877 12.7832 12.839
12.935 13.0261 13.0484 12.9404 12.6729 12.265 11.7687 11.2391 10.716
10.2194 9.75509 9.31996 8.90633 8.50583 8.11245 7.7244 7.34355 6.97329
6.61633 6.27385 5.94556 5.63026 5.32638 5.03232 4.74667 4.46827 4.19619
3.92963 3.66789 3.41028 3.15619 2.90511 2.813 3.00811 3.19699 3.37903
3.55374 3.72078 3.87998 4.03127 13.3535 13.3532 13.2949 13.1866 13.0474
12.9063 12.7979 12.7579 12.8152 12.9808 13.2334 13.5076 13.6958 13.6818
13.4077 12.9137 12.3011 11.6647 11.0608 10.5115 10.0174 9.56827 9.14833
8.74111 8.33509 7.9278 7.52441 7.13224 6.7563 6.3982 6.0571 5.73096
5.41748 5.11455 4.8205 4.53402 4.25417 3.98021 3.71151 3.44747 3.18756
2.93132 2.836 3.03045 3.21866 3.4001 3.57433 3.74104 3.90003 4.05123