# vtk DataFile Version 3.0
vtk output
ASCII
DATASET RECTILINEAR_GRID
FIELD FieldData 2
base_index 1 3 int
0 0 0
avtOriginalBounds 1 6 double
-10 10 -10 10 -10 10
DIMENSIONS 50 50 50
X_COORDINATES 50 float
-10 -9.59184 -9.18367 -8.77551 -8.36735 -7.95918 -7.55102 -7.14286 -6.73469
-6.32653 -5.91837 -5.5102 -5.10204 -4.69388 -4.28571 -3.87755 -3.46939 -3.06122
-2.65306 -2.2449 -1.83673 -1.42857 -1.02041 -0.612245 -0.204082 0.204082 0.612245
1.02041 1.42857 1.83673 2.2449 2.65306 3.06122 3.46939 3.87755 4.28572
4.69388 5.10204 5.5102 5.91837 6.32653 6.73469 7.14286 7.55102 7.95918
8.36735 8.77551 9.18367 9.59184 10
Y_COORDINATES 50 float
-10 -9.59184 -9.18367 -8.77551 -8.36735 -7.95918 -7.55102 -7.14286 -6.73469
-6.32653 -5.91837 -5.5102 -5.10204 -4.69388 -4.28571 -3.87755 -3.46939 -3.06122
-2.65306 -2.2449 -1.83673 -1.42857 -1.02041 -0.612245 -0.204082 0.204082 0.612245
1.02041 1.42857 1.83673 2.2449 2.65306 3.06122 3.46939 3.87755 4.28572
4.69388 5.10204 5.5102 5.91837 6.32653 6.73469 7.14286 7.55102 7.95918
8.36735 8.77551 9.18367 9.59184 10
Z_COORDINATES 50 float
-10 -9.59184 -9.18367 -8.77551 -8.36735 -7.95918 -7.55102 -7.14286 -6.73469
-6.32653 -5.91837 -5.5102 -5.10204 -4.69388 -4.28571 -3.87755 -3.46939 -3.06122
-2.65306 -2.2449 -1.83673 -1.42857 -1.02041 -0.612245 -0.204082 0.204082 0.612245
1.02041 1.42857 1.83673 2.2449 2.65306 3.06122 3.46939 3.87755 4.28572
4.69388 5.10204 5.5102 5.91837 6.32653 6.73469 7.14286 7.55102 7.95918
8.36735 8.77551 9.18367 9.59184 10
CELL_DATA 117649
POINT_DATA 125000
SCALARS temp float
LOOKUP_TABLE default
4.58775 4.4523 4.31051 4.16216 4.00707 3.84528 3.6776 3.50693 3.33935
3.18083 3.02984 2.87877 2.72219 2.55863 2.38858 2.32416 2.51579 2.70464
2.89019 3.07202 3.24987 3.4237 3.59374 3.76046 3.92457 4.08697 4.24865
4.41064 4.57386 4.73912 4.90698 5.07775 5.25147 5.42796 5.60678 5.78732
5.96879 6.15026 6.33064 6.50873 6.68317 6.85251 7.01523 7.16988 7.31515
7.45003 7.57388 7.6865 7.78806 7.8791 4.66778 4.53196 4.38958 4.2405
4.08458 3.92198 3.75361 3.58231 3.41356 3.25246 3.09761 2.94242 2.78192
2.6146 2.44081 2.37496 2.57066 2.76332 2.9523 3.13707 3.3173 3.49292
3.66418 3.83162 3.99605 4.15852 4.3202 4.48229 4.6459 4.81195 4.98116
5.1539 5.3303 5.51018 5.6931 5.87842 6.06531 6.25273 6.43948 6.62417
6.80521 6.98086 7.14926 7.3086 7.45729 7.59413 7.71841 7.83002 7.92936
8.01722 4.75058 4.61475 4.47226 4.32307 4.16725 4.00517 3.83794 3.66803
3.49941 3.33522 3.17445 3.01276 2.84652 2.67424 2.49593 2.42828 2.62807
2.82461 3.01709 3.20487 3.38753 3.56497 3.73742 3.90549 4.07014 4.23255
4.39407 4.55608 4.71987 4.88653 5.05689 5.23144 5.41036 5.59351 5.78048
5.9706 6.16299 6.35654 6.54993 6.74158 6.92964 7.11202 7.28646 7.45074
7.60289 7.74147 7.86576 7.97578 8.0722 8.15616 4.83609 4.70053 4.55827
4.40937 4.25409 4.093 3.92722 3.75869 3.58986 3.42237 3.25557 3.08707
2.91453 2.73675 2.55348 2.48378 2.68771 2.88819 3.08427 3.27514 3.4603
3.63958 3.81323 3.98193 4.14675 4.30902 4.47027 4.63207 4.79588 4.96296
5.13425 5.31038 5.4916 5.67783 5.86867 6.06347 6.26129 6.46098 6.66109
6.85985 7.05515 7.24451 7.42521 7.59453 7.75007 7.89014 8.01397 8.12179
8.21465 8.2941 4.9242 4.78912 4.64724 4.49875 4.34402 4.18367 4.01873
3.85057 3.68065 3.50981 3.3377 3.16306 2.98452 2.80121 2.61282 2.54097
2.74912 2.95363 3.15338 3.34742 3.53515 3.71634 3.89124 4.06061 4.22561
4.38774 4.5487 4.71021 4.87392 5.04124 5.21326 5.39071 5.57394 5.76293
5.95733 6.15649 6.35947 6.56504 6.77167 6.97741 7.17986 7.37615 7.56307
7.73733 7.89606 8.03726 8.16018 8.26531 8.35413 8.42868 5.0148 4.88032
4.73886 4.59069 4.43622 4.27608 4.11112 3.94231 3.77056 3.59636 3.41956
3.23953 3.05549 2.86686 2.67337 2.59933 2.81178 3.02036 3.22383 3.42111
3.61147 3.79464 3.9709 4.14103 4.30631 4.46839 4.62911 4.79034 4.95389
5.12131 5.29383 5.4723 5.65718 5.84852 6.04602 6.24904 6.45663 6.66754
6.88013 7.09229 7.30137 7.50412 7.69681 7.87561 8.03712 8.17907 8.30074
8.4029 8.48751 8.55712 5.1078 4.97398 4.8329 4.68487 4.53031 4.3698
4.20405 4.03381 3.85971 3.68211 3.501 3.31608 3.12692 2.93317 2.73462
2.65839 2.87514 3.0878 3.29498 3.49551 3.68856 3.87381 4.05154 4.2226
4.38836 4.55056 4.71117 4.8722 5.03558 5.20301 5.37582 5.55501 5.74112
5.93429 6.13426 6.34043 6.55184 6.76719 6.98477 7.20232 7.41698 7.62516
7.82268 8.0052 8.16887 8.31118 8.43142 8.53068 8.61136 8.67649 5.20315
5.07001 4.92925 4.78114 4.62613 4.46477 4.29766 4.12544 3.94862 3.76753
3.58225 3.39269 3.19863 2.99985 2.79624 2.71776 2.93874 3.15539 3.36622
3.56996 3.76572 3.95315 4.13252 4.30473 4.47121 4.63378 4.79451 4.9555
5.11879 5.28616 5.4591 5.63867 5.82555 6.01993 6.22162 6.43004 6.64421
6.8628 7.08399 7.30544 7.52409 7.7361 7.93696 8.12197 8.28695 8.42922
8.54811 8.64496 8.7225 8.78411 5.30079 5.16839 5.02786 4.8795 4.72374
4.56112 4.39223 4.21763 4.03781 3.85311 3.66368 3.46955 3.27063 3.06682
2.85806 2.77721 3.00229 3.22277 3.43709 3.64395 3.8424 4.03207 4.21326
4.38688 4.55439 4.71766 4.87881 5.03999 5.2033 5.37063 5.54353 5.72318
5.91033 6.10526 6.30782 6.51743 6.7331 6.95344 7.17657 7.40003 7.62065
7.83444 8.03674 8.22267 8.38795 8.52981 8.64765 8.74293 8.81854 8.87801
5.40069 5.26907 5.12874 4.97997 4.82322 4.65905 4.48804 4.31078 4.12776
3.93933 3.7457 3.54698 3.34315 3.1342 2.92015 2.83676 3.06574 3.28981
3.50742 3.71724 3.91832 4.11031 4.29349 4.46878 4.63765 4.80198 4.96388
5.12553 5.28905 5.45637 5.62912 5.80855 5.99548 6.19026 6.39277 6.60242
6.81821 7.03868 7.26188 7.48528 7.70565 7.91898 8.12063 8.30579 8.47029
8.61143 8.72865 8.82337 8.89845 8.95737 5.50274 5.372 5.23183 5.08254
4.92462 4.75866 4.58532 4.40522 4.21886 4.02663 3.82877 3.62541 3.41659
3.20237 2.98284 2.8967 3.12936 3.35678 3.57743 3.79 3.99362 4.18793
4.37324 4.55045 4.72101 4.88676 5.04976 5.21217 5.3761 5.5435 5.71602
5.89496 6.0812 6.27513 6.47665 6.68518 6.89967 7.11863 7.34004 7.56135
7.77933 7.99006 8.18911 8.37195 8.53468 8.67482 8.7918 8.88692 8.96279
9.02265 5.60672 5.47698 5.33698 5.18708 5.02784 4.85995 4.68415 4.50112
4.31142 4.11542 3.91338 3.70541 3.49157 3.27195 3.04672 2.95761 3.19377
3.4243 3.64773 3.86285 4.06886 4.26546 4.45299 4.63231 4.80483 4.9723
5.13672 5.30018 5.46474 5.6323 5.80453 5.98276 6.16787 6.36028 6.55992
6.7662 6.97806 7.19398 7.41193 7.62936 7.84311 8.04949 8.24437 8.42365
8.58384 8.72271 8.8397 8.93589 9.01354 9.0755 5.71223 5.58361 5.4438
5.29322 5.13255 4.96264 4.78437 4.59849 4.4056 4.20607 4.00008 3.78768
3.56889 3.34381 3.1127 3.02041 3.25998 3.49342 3.71938 3.93681 4.14501
4.34381 4.53355 4.71509 4.88975 5.05919 5.22529 5.39002 5.55538 5.72319
5.8951 6.0724 6.25599 6.4463 6.64325 6.84628 7.05434 7.26591 7.479
7.69113 7.8993 8.10007 8.28971 8.4646 8.62169 8.75905 8.87611 8.97369
9.05365 9.11839 5.81851 5.69115 5.55154 5.40021 5.23805 5.06611 4.88546
4.697 4.50135 4.2988 4.0894 3.87303 3.64958 3.41912 3.18197 3.08631
3.32928 3.56548 3.79374 4.01319 4.22335 4.42417 4.61605 4.79981 4.9767
5.14823 5.31615 5.48232 5.64858 5.8167 5.98823 6.16444 6.34617 6.53386
6.72746 6.92641 7.12971 7.33592 7.54312 7.74896 7.95065 8.14504 8.32884
8.49888 8.65255 8.78815 8.90514 9.0041 9.08646 9.15421 5.92435 5.79834
5.65891 5.50676 5.34304 5.16914 4.98641 4.79592 4.59829 4.39369 4.18186
3.96239 3.73489 3.49931 3.25602 3.15683 3.40328 3.64211 3.87239 4.09354
4.30533 4.50791 4.70174 4.88764 5.06671 5.24035 5.41014 5.57776 5.74496
5.91336 6.08444 6.25938 6.43899 6.62369 6.81341 7.00767 7.20554 7.40567
7.6063 7.80525 7.99998 8.18765 8.36535 8.53035 8.68039 8.81401 8.93066
9.03069 9.11522 9.18581 6.0279 5.90327 5.76392 5.61078 5.44544 5.26973
5.08543 4.89382 4.69553 4.49045 4.27787 4.05679 3.82634 3.58618 3.33672
3.23377 3.48384 3.72511 3.95701 4.1794 4.3924 4.59639 4.79193 4.97978
5.16093 5.33657 5.50811 5.67709 5.8451 6.01366 6.18415 6.35766 6.53495
6.71637 6.9019 7.09109 7.28313 7.47679 7.67051 7.86231 8.0499 8.23078
8.40236 8.56228 8.70859 8.83997 8.9559 9.05656 9.14277 9.21574 6.12647
6.00308 5.86356 5.7092 5.54213 5.36485 5.17972 4.98838 4.79143 4.58834
4.37764 4.15736 3.92576 3.68195 3.42632 3.31929 3.57302 3.81634 4.04926
4.27222 4.48587 4.69086 4.88782 5.07744 5.26047 5.4379 5.61094 5.78098
5.94951 6.11797 6.28765 6.45954 6.63433 6.81235 6.99354 7.17753 7.3636
7.5507 7.73744 7.92208 8.10261 8.27679 8.44236 8.59723 8.7397 8.86859
8.98337 9.0841 9.17135 9.24607 6.21642 6.09389 5.95372 5.79769 5.62868
5.45012 5.26516 5.07599 4.88325 4.6858 4.48099 4.26527 4.03537 3.7894
3.52764 3.41593 3.6731 3.91767 4.15057 4.37316 4.58674 4.79232 4.99051
5.18175 5.36649 5.54541 5.7195 5.89008 6.05861 6.2265 6.39499 6.56503
6.7372 6.91176 7.08865 7.26752 7.44773 7.6284 7.80834 7.98603 8.1597
8.32738 8.48708 8.63694 8.77546 8.90158 9.01476 9.11496 9.20258 9.27832
6.29313 6.1707 6.02909 5.87067 5.69931 5.51963 5.33598 5.15138 4.96666
4.78 4.58697 4.38154 4.15779 3.91196 3.64407 3.52655 3.78636 4.03064
4.26187 4.48277 4.69552 4.90141 5.10089 5.29387 5.48023 5.66022 5.83468
6.00493 6.17259 6.33917 6.50595 6.6738 6.84323 7.01439 7.18714 7.36113
7.5358 7.71038 7.88384 8.0549 8.22201 8.38344 8.53743 8.68234 8.81681
8.93988 9.05101 9.1501 9.2374 9.31343 6.35131 6.22774 6.08346 5.9215
5.74693 5.56592 5.38448 5.20703 5.03502 4.86594 4.69306 4.50645 4.29567
4.05358 3.77945 3.65409 3.91467 4.15598 4.38307 4.60065 4.81192 5.01834
5.21976 5.41509 5.60321 5.78373 5.95742 6.12596 6.29139 6.45557 6.61987
6.78513 6.95168 7.11952 7.28839 7.45787 7.62743 7.79638 7.96383 8.12868
8.28959 8.44505 8.59351 8.73352 8.86386 8.98363 9.09233 9.18977 9.27612
9.35174 6.38567 6.25917 6.11042 5.94316 5.76377 5.5803 5.40105 5.23269
5.07824 4.93503 4.79352 4.63803 4.45059 4.21774 3.93714 3.80052 4.05833
4.29255 4.51226 4.7248 4.93452 5.14267 5.34788 5.54714 5.7375 5.91768
6.08873 6.25332 6.41449 6.57471 6.73554 6.89768 7.06122 7.22588 7.39119
7.55662 7.72158 7.88542 8.04737 8.20648 8.36159 8.5114 8.65456 8.78977
8.91595 9.03228 9.13823 9.23362 9.31848 9.39311 6.39194 6.26019 6.10463
5.92953 5.74249 5.55367 5.37437 5.21489 5.08152 4.9728 4.87641 4.76872
4.61966 4.40445 4.11723 3.96434 4.21387 4.43565 4.64451 4.85091 5.06026
5.27318 5.48607 5.69246 5.88608 6.06434 6.22948 6.38653 6.5405 6.69476
6.85097 7.00948 7.16993 7.33161 7.49373 7.65557 7.81645 7.97573 8.13272
8.28659 8.43635 8.5809 8.71906 8.84968 8.97179 9.08463 9.18769 9.28073
9.36374 9.4369 6.3681 6.22853 6.06338 5.87704 5.67791 5.47807 5.29249
5.13699 5.02404 4.95619 4.91927 4.87936 4.7884 4.60281 4.31003 4.1355
4.37048 4.57497 4.77083 4.97172 5.18392 5.40724 5.63485 5.85425 6.05278
6.22592 6.37948 6.5236 6.66653 6.81262 6.96316 7.11774 7.27519 7.43421
7.59358 7.75232 7.90965 8.06491 8.21748 8.36663 8.51156 8.65132 8.78487
8.91124 9.02952 9.139 9.23917 9.32977 9.41072 9.48213 6.3154 6.16563
5.98812 5.78662 5.56928 5.34923 5.14518 4.98072 4.8792 4.85232 4.88585
4.93264 4.92027 4.77889 4.48582 4.28893 4.50679 4.6936 4.87819 5.07694
5.29734 5.53927 5.79246 6.03445 6.24009 6.40198 6.535 6.65923 6.78723
6.9235 7.068 7.21886 7.37379 7.53067 7.68782 7.84399 7.99828 8.15005
8.29873 8.44374 8.58441 8.71994 8.84944 8.97204 9.08691 9.19336 9.29087
9.37913 9.45801 9.52756 6.23853 6.07708 5.88527 5.66519 5.42296 5.17057
4.92898 4.73124 4.61905 4.62304 4.7316 4.87726 4.95625 4.87152 4.59187
4.38509 4.59377 4.77139 4.95203 5.15457 5.38889 5.65732 5.94814 6.22503
6.43992 6.58135 6.6836 6.78243 6.89396 7.02082 7.16034 7.30862 7.462
7.61756 7.77316 7.92732 8.07911 8.22791 8.37327 8.51475 8.65182 8.78381
8.90997 9.02949 9.14156 9.24551 9.34078 9.42701 9.504 9.57178 6.14502
5.97201 5.76598 5.52625 5.25481 4.9588 4.65682 4.39014 4.22884 4.24266
4.42855 4.6806 4.85164 4.82789 4.58181 4.39127 4.60942 4.79396 4.98161
5.19393 5.44425 5.73945 6.0699 6.3864 6.61091 6.72777 6.79875 6.87577
6.97547 7.09696 7.2346 7.38252 7.53595 7.69131 7.84616 7.99895 8.14878
8.29516 8.43779 8.57641 8.71064 8.83994 8.96362 9.08092 9.19103 9.29323
9.38689 9.47159 9.54708 9.61333 6.04375 5.86146 5.64437 5.38865 5.09072
4.74913 4.37288 4.00343 3.74591 3.7426 4.01457 4.38351 4.63891 4.66837
4.46663 4.31314 4.55656 4.76191 4.96526 5.18988 5.45154 5.75987 6.1073
6.44114 6.67203 6.78303 6.84701 6.9211 7.02133 7.1452 7.28579 7.43647
7.59195 7.74845 7.90347 8.05556 8.204 8.34852 8.48907 8.62558 8.75783
8.88541 9.00768 9.12382 9.233 9.33438 9.42726 9.51113 9.58567 9.65079
5.94316 5.75595 5.53439 5.27247 4.96196 4.59293 4.16122 3.69785 3.33315
3.29907 3.65623 4.12744 4.43462 4.48723 4.31429 4.19414 4.46231 4.69081
4.91125 5.14582 5.40967 5.71077 6.04051 6.35493 6.58697 6.72292 6.81542
6.91131 7.02693 7.16189 7.31068 7.46735 7.62695 7.78594 7.94207 8.09414
8.24177 8.38501 8.52413 8.65934 8.7906 8.91759 9.03965 9.1559 9.26536
9.36706 9.46016 9.54403 9.61831 9.68285 5.84966 5.66317 5.44601 5.19231
4.89326 4.53686 4.11445 3.6506 3.27662 3.24708 3.62648 4.09402 4.36261
4.37643 4.19165 4.08012 4.35833 4.60126 4.83328 5.07245 5.33066 5.61237
5.90871 6.19054 6.42056 6.58982 6.72489 6.85532 6.99542 7.14744 7.30828
7.47345 7.63887 7.80151 7.95956 8.11224 8.25956 8.40206 8.54042 8.67517
8.80651 8.93416 9.05741 9.1752 9.28634 9.38964 9.4841 9.56895 9.64374
9.70832 5.76677 5.5864 5.38225 5.15122 4.88875 4.58962 4.25495 3.91654
3.68299 3.72113 4.02903 4.34452 4.46096 4.36506 4.12373 3.99279 4.26363
4.50879 4.74438 4.98275 5.2317 5.49308 5.76008 6.01627 6.24344 6.43646
6.60657 6.76936 6.93465 7.10523 7.27958 7.4545 7.62675 7.79386 7.95444
8.10817 8.25559 8.39776 8.53592 8.67105 8.80359 8.93328 9.05926 9.18019
9.29455 9.40087 9.49791 9.58476 9.66091 9.7262 5.69515 5.5246 5.33901
5.13958 4.92852 4.71102 4.50169 4.33788 4.28872 4.40827 4.61947 4.73282
4.64994 4.41257 4.09359 3.92847 4.18157 4.42026 4.65318 4.88717 5.12646
5.3715 5.618 5.85752 6.08162 6.28764 6.48016 6.66662 6.8525 7.03961
7.2268 7.41147 7.59085 7.76281 7.92627 8.0813 8.22896 8.37102 8.50939
8.64564 8.7805 8.91371 9.0441 9.16988 9.2891 9.3999 9.50077 9.59066
9.66899 9.73566 5.63353 5.47397 5.30797 5.14085 4.98063 4.83995 4.73951
4.71061 4.78353 4.94141 5.07061 5.02838 4.79171 4.44495 4.06484 3.87082
4.10627 4.33613 4.56381 4.79212 5.02275 5.25555 5.4881 5.71642 5.93685
6.14836 6.353 6.55422 6.75457 6.95451 7.15257 7.34613 7.53244 7.70935
7.87583 8.03216 8.17996 8.3218 8.46054 8.59851 8.7368 8.87503 9.01156
9.14397 9.26969 9.3864 9.49228 9.58615 9.66743 9.73606 5.58019 5.43044
5.28099 5.13989 5.01824 4.9307 4.89551 4.93063 5.03798 5.17196 5.2249
5.09668 4.79571 4.40963 4.00939 3.80549 4.03098 4.25479 4.47786 4.70089
4.9242 5.1475 5.36965 5.5891 5.8047 6.01655 6.226 6.43479 6.6439
6.85276 7.05935 7.26067 7.45358 7.63551 7.80508 7.96261 8.11022 8.25146
8.39044 8.53051 8.67322 8.81795 8.96233 9.10305 9.23675 9.36059 9.47245
9.57106 9.65587 9.72694 5.53415 5.39168 5.2536 5.12907 5.02961 4.96806
4.956 4.99795 5.07944 5.15188 5.13629 4.97291 4.67494 4.30653 3.9231
3.72868 3.95352 4.17595 4.39654 4.61537 4.8324 5.04753 5.26056 5.4714
5.68042 5.88863 6.0975 6.30832 6.52147 6.73585 6.94895 7.15719 7.35668
7.544 7.71707 7.87588 8.02297 8.1631 8.30198 8.44434 8.59228 8.74479
8.89843 9.04877 9.19155 9.32332 9.44176 9.54554 9.63422 9.70802 5.4958
5.35812 5.22636 5.10955 5.01816 4.96183 4.94567 4.96506 4.99949 5.00886
4.943 4.76992 4.49933 4.17032 3.82073 3.64657 3.87705 4.10186 4.32185
4.53727 4.74833 4.95534 5.15889 5.35995 5.55995 5.76083 5.96467 6.17306
6.38649 6.6038 6.8221 7.03713 7.24395 7.43786 7.61559 7.77645 7.92322
8.062 8.20048 8.34516 8.49881 8.65983 8.8235 8.98404 9.1362 9.27605
9.40108 9.51002 9.60257 9.67915 5.46672 5.3324 5.20371 5.08881 4.99656
4.93372 4.90108 4.88982 4.87975 4.84123 4.74384 4.57068 4.32754 4.03652
3.72144 3.56947 3.80794 4.03673 4.25679 4.4687 4.67307 4.8708 5.06317
5.25201 5.43975 5.62933 5.82385 6.02584 6.23648 6.45494 6.67809 6.90084
7.11686 7.31976 7.50462 7.66961 7.81748 7.9556 8.0939 8.24089 8.40016
8.56946 8.7427 8.91276 9.07352 9.22065 9.35157 9.46512 9.56116 9.64033
5.44891 5.31801 5.19147 5.07623 4.97943 4.90566 4.85355 4.81355 4.76851
4.69729 4.58112 4.41045 4.18824 3.92656 3.63975 3.50702 3.75323 3.98573
4.20514 4.41221 4.60803 4.79409 4.97235 5.14539 5.3166 5.49015 5.67063
5.86217 6.06731 6.28591 6.51464 6.74727 6.9757 7.19144 7.38748 7.56048
7.71271 7.85252 7.99186 8.14128 8.30527 8.48121 8.66191 8.83925 9.00649
9.15908 9.29444 9.41151 9.51032 9.59164 5.44379 5.31765 5.19427 5.07916
4.97776 4.89303 4.82283 4.75868 4.68719 4.59353 4.46563 4.29749 4.09016
3.84976 3.58423 3.46661 3.71948 3.95433 4.17111 4.37076 4.55496 4.72584
4.88593 5.03846 5.18772 5.33936 5.50009 5.67657 5.87354 6.09198 6.32817
6.5742 6.81955 7.05319 7.26581 7.45231 7.6141 7.75984 7.90279 8.05506
8.22217 8.40169 8.58615 8.76707 8.93754 9.09292 9.23067 9.34979 9.45037
9.53325 5.45167 5.33228 5.21404 5.10095 4.9967 4.90294 4.81745 4.73357
4.64161 4.5315 4.39544 4.22939 4.03311 3.80883 3.55965 3.45398 3.71292
3.94825 4.15927 4.34759 4.51589 4.66706 4.80405 4.93041 5.05118 5.17367
5.3075 5.46323 5.64915 5.86792 6.11484 6.37915 6.64692 6.9041 7.1391
7.34514 7.52259 7.67964 7.82978 7.98584 8.15432 8.3338 8.51762 8.69782
8.86776 9.02293 9.16079 9.28033 9.38159 9.46538 5.47166 5.36116 5.25031
5.1415 5.03672 4.93644 4.83861 4.73853 4.62991 4.50664 4.36418 4.20006
4.01339 3.80353 3.56906 3.47455 3.7403 3.9738 4.17443 4.34589 4.49285
4.61909 4.72764 4.82183 4.90689 4.99173 5.08988 5.21778 5.3895 5.61009
5.87266 6.16143 6.45749 6.74334 7.00543 7.23588 7.43413 7.60743 7.7684
7.92966 8.09852 8.27518 8.4547 8.63046 8.79658 8.94884 9.08476 9.20325
9.30421 9.3883 5.50206 5.40256 5.30138 5.19923 5.09637 4.99209 4.88448
4.77066 4.64747 4.51241 4.36403 4.20183 4.02517 3.83147 3.61446 3.53408
3.80937 4.03765 4.2208 4.36795 4.48722 4.58329 4.6586 4.71535 4.75802
4.79658 4.84925 4.94114 5.09542 5.3206 5.60527 5.92526 6.25467 6.57237
6.86368 7.12055 7.34209 7.53446 7.70884 7.8769 8.04639 8.21921 8.39262
8.56183 8.72205 8.86961 9.00215 9.1185 9.21842 9.30238 5.54072 5.45443
5.36545 5.27272 5.17455 5.06882 4.95343 4.82703 4.68949 4.54198 4.38654
4.22536 4.05947 3.88605 3.69411 3.6364 3.92644 4.14369 4.29903 4.41314
4.4987 4.56052 4.59965 4.61621 4.61275 4.59914 4.59834 4.64684 4.78116
5.01446 5.32745 5.68349 6.04812 6.39712 6.71593 6.99749 7.24128 7.45267
7.6412 7.81724 7.98849 8.15818 8.32565 8.48797 8.6417 8.78385 8.91235
9.02602 9.12451 9.20811 5.5852 5.5146 5.44098 5.36134 5.27155 5.16728
5.04555 4.90617 4.75221 4.58904 4.42282 4.25922 4.1022 3.95116 3.79293
3.77073 4.08251 4.28141 4.39959 4.47525 4.52417 4.55036 4.55354 4.53172
4.48468 4.42083 4.36657 4.37039 4.48458 4.72757 5.0695 5.45923 5.85411
6.2282 6.56829 6.86907 7.13081 7.35839 7.55985 7.74406 7.91821 8.08631
8.24921 8.40565 8.55345 8.69045 8.81494 8.9259 9.02291 9.10615 5.63249
5.58041 5.5262 5.46472 5.3886 5.28981 5.1629 5.00831 4.83303 4.64791
4.46404 4.29066 4.13451 3.99782 3.86842 3.88296 4.21974 4.40622 4.49728
4.54227 4.55769 4.55022 4.52152 4.46881 4.38948 4.28981 4.19742 4.16847
4.2667 4.5142 4.87283 5.28116 5.69169 6.07827 6.42925 6.74084 7.01395
7.25293 7.4644 7.65572 7.83323 8.00111 8.16111 8.31319 8.45626 8.58892
8.70996 8.81853 8.91428 8.9973 5.67856 5.64777 5.61765 5.58102 5.52618
5.43882 5.30812 5.13413 4.92953 4.71315 4.50216 4.30858 4.1396 3.9968
3.86737 3.88857 4.24328 4.45634 4.56472 4.60199 4.59086 4.55389 4.50084
4.4298 4.33679 4.22661 4.12571 4.08917 4.17976 4.41919 4.76971 5.17058
5.57493 5.95722 6.30639 6.61902 6.89591 7.14052 7.35808 7.55441 7.73479
7.9031 8.06148 8.21062 8.35023 8.47959 8.59792 8.70463 8.79948 8.88254
5.71781 5.71004 5.70817 5.70364 5.67969 5.61226 5.48005 5.28083 5.03628
4.77775 4.52997 4.30639 4.11169 3.9433 3.7864 3.78546 4.14903 4.42388
4.59204 4.64068 4.60829 4.54884 4.48295 4.40921 4.32297 4.22847 4.14891
4.12997 4.2216 4.44131 4.76014 5.12866 5.50601 5.86811 6.20351 6.50801
6.78142 7.02599 7.24542 7.44406 7.62605 7.79468 7.95206 8.09925 8.23645
8.36343 8.47979 8.58522 8.67956 8.76294 5.74303 5.75734 5.78467 5.81661
5.8319 5.79362 5.66324 5.43307 5.13878 4.82991 4.53979 4.28153 4.05568
3.85537 3.66629 3.6403 4.00182 4.32471 4.54965 4.61709 4.57922 4.51624
4.45521 4.39518 4.33224 4.2706 4.2289 4.24014 4.33817 4.53516 4.8128
5.13666 5.475 5.80659 6.11978 6.40921 6.67336 6.91305 7.13053 7.32873
7.51068 7.67894 7.83537 7.98108 8.11655 8.24184 8.35686 8.46148 8.55569
8.63964 5.7463 5.77741 5.82831 5.89212 5.9451 5.93806 5.81184 5.55068
5.20703 4.85066 4.52214 4.23271 3.97877 3.75071 3.53583 3.48692 3.82552
4.14552 4.38453 4.48156 4.47693 4.44258 4.40763 4.37553 4.34574 4.32318
4.32196 4.364 4.47026 4.64856 4.88856 5.16856 5.46603 5.7638 6.05092
6.32137 6.57249 6.80382 7.0163 7.21166 7.39189 7.55885 7.714 7.85832
7.99238 8.11643 8.23052 8.3347 8.42904 8.51374 5.72107 5.75915 5.82001
5.89781 5.96822 5.97622 5.85114 5.57215 5.20111 4.8185 4.46783 4.15879
3.88572 3.63816 3.40478 3.33411 3.63493 3.91811 4.14138 4.2692 4.31931
4.33424 4.33931 4.34325 4.3499 4.36522 4.39989 4.46809 4.5825 4.74806
4.95925 5.20302 5.46434 5.73025 5.99136 6.24172 6.47804 6.69895 6.90437
7.09507 7.27216 7.43686 7.5902 7.73299 7.86573 7.98872 8.10213 8.20609
8.30074 8.3863 5.66458 5.69762 5.75061 5.81677 5.87201 5.86519 5.73359
5.4598 5.09877 4.72305 4.37361 4.06066 3.77974 3.52178 3.27707 3.18886
3.45346 3.70072 3.90694 4.05466 4.14929 4.211 4.25711 4.2976 4.33884
4.38733 4.45136 4.54034 4.66213 4.81996 5.01097 5.22746 5.45968 5.69833
5.93592 6.1671 6.38846 6.59813 6.79537 6.98021 7.15312 7.31476 7.46579
7.60677 7.73811 7.8601 7.97293 8.07677 8.17181 8.25827 4.64932 4.51232
4.36849 4.21744 4.05867 3.89164 3.71636 3.53565 3.3592 3.20007 3.05574
2.91099 2.75752 2.59455 2.42354 2.3589 2.55364 2.7451 2.93268 3.11586
3.29435 3.4681 3.6374 3.80289 3.96549 4.12636 4.28682 4.44817 4.6116
4.77808 4.94828 5.12251 5.30076 5.4827 5.66777 5.85519 6.04401 6.23316
6.42143 6.60746 6.78973 6.96659 7.13628 7.29707 7.44737 7.58597 7.71212
7.8256 7.92672 8.01616 4.73263 4.59529 4.45092 4.29919 4.13971 3.97213
3.79679 3.61665 3.44036 3.27849 3.12883 2.97878 2.82084 2.65387 2.47899
2.41295 2.61214 2.80774 2.99899 3.18522 3.36603 3.54133 3.71145 3.8771
4.03937 4.19963 4.35942 4.52028 4.68364 4.85065 5.02213 5.19849 5.37979
5.56571 5.75566 5.94883 6.14421 6.34062 6.53673 6.73095 6.92149 7.1063
7.28318 7.44989 7.60444 7.74533 7.87175 7.98365 8.08162 8.16676 4.81898
4.68171 4.53733 4.38568 4.22665 4.06036 3.88771 3.71165 3.53811 3.37279
3.2142 3.05505 2.88999 2.71746 2.53779 2.46994 2.67364 2.87351 3.06855
3.25796 3.44117 3.61805 3.78894 3.95464 4.11643 4.27587 4.43477 4.5949
4.75793 4.92522 5.09774 5.27603 5.4602 5.65 5.84482 6.04384 6.246
6.45005 6.6545 6.85757 7.05713 7.2507 7.43548 7.60862 7.76758 7.91051
8.03656 8.14593 8.23967 8.31941 4.90834 4.77146 4.62743 4.4763 4.31824
4.15374 3.98399 3.81137 3.63929 3.47034 3.30364 3.13559 2.96297 2.78428
2.59933 2.52943 2.73775 2.94202 3.14103 3.33374 3.51946 3.69797 3.86963
4.03536 4.19658 4.35511 4.51296 4.67219 4.83469 5.00201 5.1753 5.35525
5.54205 5.7355 5.93504 6.13983 6.34879 6.56061 6.77369 6.98604 7.1952
7.39815 7.59141 7.77137 7.93479 8.07941 8.20436 8.3102 8.39863 8.47196
5.00064 4.86435 4.72086 4.57034 4.41317 4.25 4.082 3.91082 3.73838
3.56584 3.39275 3.21737 3.03789 2.85319 2.66286 2.59083 2.8039 3.01271
3.21581 3.41195 3.60029 3.78053 3.95304 4.11883 4.27952 4.43713 4.59392
4.75216 4.91396 5.0811 5.25491 5.43618 5.62526 5.82201 6.02592 6.23617
6.45169 6.67111 6.89275 7.11442 7.33334 7.54592 7.74794 7.93486 8.10261
8.24846 8.37156 8.473 8.55525 8.6214 5.09581 4.96024 4.81729 4.66725
4.51057 4.34794 4.18035 4.00896 3.83491 3.65881 3.48048 3.29908 3.1136
2.92325 2.72761 2.65345 2.87137 3.0848 3.29207 3.49174 3.6828 3.86489
4.03837 4.20439 4.3647 4.52152 4.67732 4.8346 4.99565 5.16245 5.33649
5.51874 5.70965 5.9092 6.11694 6.33209 6.55357 6.78001 7.00963 7.2401
7.46831 7.69016 7.90062 8.09418 8.26588 8.41245 8.53312 8.62961 8.70526
8.76406 5.19384 5.05904 4.91657 4.76675 4.61007 4.4472 4.27896 4.10624
3.92981 3.7501 3.56711 3.38043 3.1895 2.99379 2.79292 2.71663 2.93938
3.15741 3.36885 3.57207 3.76593 3.95 4.12466 4.29115 4.45135 4.60766
4.76271 4.91917 5.0795 5.24586 5.41988 5.60272 5.79496 5.99667 6.2075
6.4267 6.6532 6.88558 7.12202 7.36004 7.59626 7.82613 8.04388 8.24311
8.41799 8.56476 8.68277 8.77438 8.84381 8.89584 5.29478 5.16078 5.01868
4.86882 4.71168 4.5479 4.37824 4.20342 4.02408 3.84062 3.65315 3.46151
3.26538 3.06442 2.8583 2.77977 3.00722 3.22969 3.44516 3.65187 3.84856
4.03475 4.21085 4.37814 4.53864 4.69484 4.8495 5.00541 5.16517 5.33104
5.50486 5.68789 5.88089 6.08403 6.29703 6.51917 6.74937 6.98617 7.22765
7.47122 7.71328 7.94891 8.17184 8.37498 8.55186 8.69837 8.814 8.90161
8.9661 9.01288 5.39871 5.26556 5.12374 4.97357 4.81557 4.65038 4.4787
4.30124 4.11859 3.93116 3.73917 3.54259 3.34128 3.13498 2.92348 2.84251
3.07437 3.30096 3.5202 3.73022 3.92972 4.11817 4.29599 4.46452 4.62581
4.78242 4.93717 5.0929 5.25231 5.41777 5.59122 5.77409 5.96725 6.171
6.38512 6.60888 6.84117 7.08046 7.32471 7.57121 7.81619 8.05453 8.2797
8.48433 8.66169 8.80759 8.92159 9.00681 9.06848 9.11228 5.50576 5.37353
5.23191 5.08123 4.92204 4.755 4.58086 4.40032 4.21401 4.02239 3.82572
3.62409 3.41743 3.20561 2.98845 2.90475 3.14062 3.37094 3.59357 3.80665
4.00886 4.19967 4.37953 4.54974 4.71237 4.86997 5.02536 5.18138 5.34076
5.50592 5.67893 5.86131 6.05406 6.25756 6.47163 6.69556 6.92815 7.16777
7.41226 7.65875 7.90339 8.14102 8.36514 8.56857 8.74481 8.88982 9.00321
9.08802 9.14937 9.19281 5.61605 5.48485 5.34338 5.19201 5.03134 4.86211
4.68513 4.50119 4.31095 4.11492 3.91341 3.70655 3.49434 3.27672 3.05358
2.9668 3.20626 3.43983 3.66543 3.88125 4.08602 4.27926 4.4614 4.63373
4.79824 4.95743 5.11403 5.27083 5.43054 5.59562 5.76816 5.94978 6.14156
6.34396 6.55682 6.7794 7.01044 7.24821 7.4904 7.73405 7.97525 8.20896
8.42905 8.62889 8.80257 8.94646 9.06017 9.14638 9.2097 9.25522 5.72961
5.59958 5.45825 5.30604 5.14363 4.9719 4.79181 4.60423 4.40989 4.20935
4.0029 3.7907 3.57277 3.34907 3.11962 3.02938 3.27206 3.50844 3.73658
3.95479 4.16193 4.35758 4.54218 4.71697 4.88383 5.04514 5.20348 5.36156
5.522 5.68722 5.85932 6.03997 6.23029 6.43077 6.64127 6.86106 7.0888
7.32268 7.56032 7.79868 8.03392 8.26125 8.4751 8.66961 8.8397 8.98225
9.09685 9.18567 9.25258 9.302 5.8463 5.71763 5.57644 5.42323 5.25884
5.08437 4.90096 4.70963 4.5112 4.30622 4.09494 3.87746 3.65374 3.42378
3.18769 3.09367 3.3393 3.57813 3.8084 4.02865 4.2379 4.43586 4.62299
4.80046 4.97001 5.13384 5.29438 5.45416 5.61569 5.78129 5.95303 6.13254
6.32096 6.5188 6.72593 6.9416 7.1645 7.39277 7.62403 7.85527 8.08279
8.30218 8.50849 8.69672 8.86264 9.00363 9.11927 9.21119 9.28247 9.33677
5.96567 5.83857 5.69751 5.54313 5.37652 5.1991 5.01227 4.81728 4.61502
4.40599 4.19032 3.9679 3.73859 3.50234 3.25933 3.16122 3.4097 3.65071
3.88275 4.10465 4.3157 4.51577 4.70536 4.88557 5.05799 5.22461 5.38765
5.54944 5.71234 5.87852 6.04996 6.22822 6.4144 6.609 6.81189 7.02238
7.23919 7.46053 7.6841 7.90701 8.12582 8.33651 8.53478 8.71641 8.87792
9.01714 9.13362 9.22852 9.3042 9.36358 6.08677 5.96144 5.82047 5.66469
5.49561 5.31505 5.12487 4.92658 4.72115 4.50895 4.28982 4.06331 3.82897
3.5866 3.33648 3.23399 3.48533 3.7283 3.96174 4.18485 4.3973 4.59916
4.79101 4.97387 5.14917 5.31866 5.48434 5.64832 5.81274 5.97963 6.15081
6.32773 6.51142 6.70233 6.90036 7.10488 7.31472 7.52825 7.74331 7.95727
8.16695 8.36879 8.55904 8.73413 8.89119 9.0284 9.1453 9.24267 9.32225
9.38634 6.20787 6.08445 5.94344 5.78597 5.61408 5.43028 5.23702 5.03619
4.82884 4.61507 4.39421 4.16517 3.92692 3.67894 3.42154 3.31435 3.56863
3.81327 4.04759 4.27135 4.48465 4.68786 4.88165 5.06695 5.245 5.4173
5.58557 5.75171 5.91765 6.08525 6.25614 6.43165 6.61269 6.79965 6.99246
7.19057 7.39296 7.59821 7.80443 8.00925 8.20982 8.40299 8.58548 8.75426
8.90689 9.04184 9.1586 9.25768 9.34037 9.40839 6.32615 6.20465 6.06332
5.90371 5.72864 5.54156 5.34577 5.1437 4.93649 4.72381 4.50413 4.27524
4.03504 3.78239 3.51757 3.40516 3.66235 3.90811 4.14251 4.36607 4.57949
4.78351 4.97886 5.16635 5.34693 5.52181 5.69244 5.86051 6.02775 6.19587
6.36635 6.54036 6.71867 6.90162 7.08912 7.28072 7.47558 7.67252 7.86992
8.06574 8.25747 8.44231 8.6174 8.7801 8.9283 9.06065 9.17666 9.2766
9.3614 9.43238 6.43736 6.31753 6.17536 6.01298 5.83426 5.64393 5.44649
5.24518 5.04129 4.83386 4.62 4.39561 4.15675 3.90102 3.62857 3.50998
3.76964 4.01539 4.24848 4.47057 4.68318 4.88742 5.08401 5.27348 5.45636
5.63348 5.80602 5.97549 6.14354 6.31178 6.48158 6.65396 6.82955 7.00858
7.19095 7.37626 7.56386 7.75278 7.94171 8.1289 8.31218 8.48908 8.65709
8.81386 8.95755 9.08694 9.20153 9.30145 9.38734 9.46021 6.53558 6.41677
6.27292 6.10687 5.92386 5.73034 5.53246 5.33466 5.13861 4.9426 4.74172
4.52881 4.29662 4.04038 3.75986 3.63326 3.89404 4.13753 4.367 4.5858
4.79648 5.00048 5.19827 5.38976 5.57481 5.75371 5.92741 6.09738 6.26537
6.43303 6.60169 6.77223 6.94512 7.12046 7.29807 7.47758 7.65845 7.83991
8.02091 8.19999 8.37528 8.54463 8.70579 8.85672 8.99574 9.12177 9.23429
9.33331 9.41929 9.49298 6.61344 6.49438 6.34753 6.17658 5.98839 5.79156
5.59448 5.40347 5.22114 5.04517 4.86793 4.67745 4.46062 4.20805 3.91851
3.78036 4.03914 4.27631 4.49855 4.71163 4.91929 5.12305 5.32265 5.51678
5.70411 5.88418 6.0578 6.22678 6.39329 6.55927 6.72607 6.89447 7.0647
7.23665 7.41 7.58434 7.75918 7.9339 8.10764 8.27919 8.44697 8.60912
8.76365 8.90876 9.04296 9.16524 9.27508 9.37243 9.45758 9.53109 6.66288
6.54153 6.38982 6.21224 6.01743 5.81648 5.62077 5.43956 5.27759 5.13274
4.99427 4.84305 4.6557 4.41365 4.11314 3.95697 4.20752 4.43169 4.64159
4.84615 5.0502 5.25487 5.45827 5.65679 5.84693 6.02717 6.19859 6.3641
6.52692 6.68958 6.85356 7.01938 7.18696 7.35585 7.5255 7.69536 7.86493
8.03366 8.20084 8.36549 8.52626 8.68156 8.82969 8.96904 9.09829 9.21651
9.3232 9.41823 9.50178 9.57427 6.67677 6.55037 6.39129 6.20469 6.00078
5.79331 5.59739 5.42685 5.29082 5.18944 5.10947 5.02207 4.88668 4.66653
4.35162 4.16625 4.39789 4.59948 4.79098 4.98467 5.186 5.39488 5.60658
5.81326 6.0074 6.18588 6.35125 6.50916 6.66499 6.82217 6.98213 7.14493
7.30988 7.47606 7.64255 7.80859 7.9736 8.13706 8.29837 8.45672 8.611
8.75988 8.90189 9.03564 9.15996 9.27399 9.37723 9.4695 9.55087 9.62166