# vtk DataFile Version 3.0
vtk output
ASCII
DATASET RECTILINEAR_GRID
FIELD FieldData 2
base_index 1 3 int
0 0 0
avtOriginalBounds 1 6 double
-10 10 -10 10 -10 10
DIMENSIONS 50 50 50
X_COORDINATES 50 float
-10 -9.59184 -9.18367 -8.77551 -8.36735 -7.95918 -7.55102 -7.14286 -6.73469
-6.32653 -5.91837 -5.5102 -5.10204 -4.69388 -4.28571 -3.87755 -3.46939 -3.06122
-2.65306 -2.2449 -1.83673 -1.42857 -1.02041 -0.612245 -0.204082 0.204082 0.612245
1.02041 1.42857 1.83673 2.2449 2.65306 3.06122 3.46939 3.87755 4.28572
4.69388 5.10204 5.5102 5.91837 6.32653 6.73469 7.14286 7.55102 7.95918
8.36735 8.77551 9.18367 9.59184 10
Y_COORDINATES 50 float
-10 -9.59184 -9.18367 -8.77551 -8.36735 -7.95918 -7.55102 -7.14286 -6.73469
-6.32653 -5.91837 -5.5102 -5.10204 -4.69388 -4.28571 -3.87755 -3.46939 -3.06122
-2.65306 -2.2449 -1.83673 -1.42857 -1.02041 -0.612245 -0.204082 0.204082 0.612245
1.02041 1.42857 1.83673 2.2449 2.65306 3.06122 3.46939 3.87755 4.28572
4.69388 5.10204 5.5102 5.91837 6.32653 6.73469 7.14286 7.55102 7.95918
8.36735 8.77551 9.18367 9.59184 10
Z_COORDINATES 50 float
-10 -9.59184 -9.18367 -8.77551 -8.36735 -7.95918 -7.55102 -7.14286 -6.73469
-6.32653 -5.91837 -5.5102 -5.10204 -4.69388 -4.28571 -3.87755 -3.46939 -3.06122
-2.65306 -2.2449 -1.83673 -1.42857 -1.02041 -0.612245 -0.204082 0.204082 0.612245
1.02041 1.42857 1.83673 2.2449 2.65306 3.06122 3.46939 3.87755 4.28572
4.69388 5.10204 5.5102 5.91837 6.32653 6.73469 7.14286 7.55102 7.95918
8.36735 8.77551 9.18367 9.59184 10
CELL_DATA 117649
POINT_DATA 125000
SCALARS temp float
LOOKUP_TABLE default
7.92429 7.81512 7.69672 7.56835 7.42923 7.27887 7.11821 6.95233 6.79324
6.65406 6.53336 6.41632 6.29109 6.15356 6.00374 5.84281 5.67213 5.49293
5.30643 5.11384 4.91646 4.71566 4.51286 4.30943 4.10669 3.90573 3.70742
3.51234 3.32075 3.13264 2.94775 2.76564 2.58575 2.40749 2.23027 2.30248
2.48181 2.66125 2.84033 3.01841 3.19475 3.36848 3.53866 3.70429 3.86444
4.01829 4.1652 4.30478 4.43689 4.56158 8.06253 7.95494 7.83791 7.7108
7.57294 7.42407 7.26535 7.10178 6.94421 6.80389 6.67951 6.55818 6.42911
6.28817 6.135 5.97052 5.79584 5.61211 5.42046 5.22212 5.01847 4.81101
4.60132 4.39098 4.18148 3.97411 3.76986 3.5694 3.37305 3.18078 2.99231
2.80712 2.62457 2.44396 2.26461 2.33873 2.52194 2.70559 2.88916 3.07195
3.25309 3.43157 3.60626 3.77596 3.93953 4.09601 4.24468 4.38517 4.51739
4.64155 8.20554 8.10026 7.98554 7.86095 7.72622 7.58155 7.42856 7.27171
7.11886 6.97703 6.84519 6.71497 6.57841 6.4316 6.27357 6.10457 5.92529
5.73657 5.53942 5.335 5.12473 4.91024 4.69328 4.47564 4.25901 4.04485
3.83432 3.62816 3.42676 3.23008 3.0378 2.84935 2.66398 2.48092 2.29937
2.3754 2.56255 2.75052 2.93872 3.1264 3.31257 3.49605 3.67547 3.84939
4.01645 4.17548 4.32572 4.46679 4.59876 4.72199 8.35324 8.25084 8.13911
8.01788 7.88722 7.7478 7.60138 7.45144 7.30286 7.15932 7.02013 6.88059
6.7356 6.58193 6.4182 6.24408 6.05975 5.86571 5.66275 5.45198 5.23482
5.01301 4.78848 4.56324 4.33917 4.11793 3.90081 3.68868 3.48194 3.2806
3.08428 2.89234 2.70399 2.51832 2.33445 2.41235 2.60343 2.79571 2.98859
3.18124 3.37257 3.56118 3.74546 3.92369 4.0942 4.25567 4.40722 4.54857
4.67992 4.80185 8.50544 8.40634 8.29799 8.1804 8.05394 7.91943 7.77849
7.63359 7.48755 7.34224 7.19722 7.04995 6.89733 6.73695 6.56736 6.38785
6.1982 5.99861 5.78964 5.5723 5.34805 5.11873 4.88644 4.65339 4.42169
4.19316 3.96925 3.7509 3.5386 3.33234 3.13174 2.93609 2.74453 2.55606
2.36972 2.44936 2.64425 2.84073 3.0382 3.23576 3.43218 3.62589 3.815
3.99746 4.17132 4.33502 4.48763 4.62895 4.75938 4.87976 8.66193 8.56642
8.46158 8.34758 8.22489 8.09437 7.95732 7.81545 7.67045 7.5233 7.37375
7.2204 7.06135 6.89484 6.71955 6.53458 6.33947 6.13414 5.91899 5.69496
5.46351 5.22659 4.98647 4.74556 4.50614 4.27024 4.03941 3.81471 3.59666
3.38527 3.18014 2.98054 2.78552 2.59403 2.40499 2.48618 2.68465 2.88509
3.08686 3.28904 3.49027 3.68879 3.88246 4.0689 4.24584 4.41151 4.56493
4.706 4.83536 4.95412 8.82257 8.73081 8.62949 8.51883 8.39932 8.27176
8.1372 7.99686 7.85182 7.70269 7.54936 7.39101 7.22644 7.05433 6.87351
6.68305 6.48232 6.27109 6.04963 5.81881 5.58013 5.33563 5.08774 4.83904
4.592 4.34876 4.11102 3.8799 3.65597 3.43927 3.2294 3.02559 2.82685
2.63207 2.44009 2.52254 2.72424 2.92821 3.13381 3.34007 3.54554 3.7483
3.94595 4.13585 4.31544 4.48276 4.63679 4.77756 4.90593 5.02323 8.98725
8.89938 8.80152 8.6939 8.57699 8.45153 8.31839 8.17851 8.03268 7.88138
7.72457 7.56177 7.39215 7.2147 7.02839 6.8323 6.62573 6.40837 6.18043
5.94274 5.69686 5.4449 5.18943 4.93315 4.67869 4.42829 4.18374 3.94624
3.71638 3.49424 3.27942 3.07115 2.86842 2.67005 2.47484 2.55819 2.76265
2.96957 3.17833 3.38789 3.59674 3.80283 4.0036 4.19618 4.37782 4.54643
4.70097 4.84156 4.96924 5.08554 9.15591 9.07206 8.9776 8.87275 8.75797
8.63392 8.50142 8.36126 8.21412 8.0604 7.90016 7.73308 7.55855 7.37575
7.18378 6.98176 6.76901 6.5452 6.31055 6.0659 5.81285 5.55361 5.29083
5.0273 4.76573 4.50845 4.2573 4.01351 3.77774 3.55008 3.33014 3.11718
2.91016 2.7079 2.50913 2.59296 2.79961 3.0088 3.21987 3.43175 3.64289
3.85117 4.05393 4.24821 4.43118 4.60069 4.75571 4.89643 5.02396 5.1399
9.32846 9.2488 9.15772 9.05544 8.9424 8.81929 8.68688 8.54594 8.3971
8.24076 8.07702 7.90565 7.72615 7.53782 7.33985 7.13147 6.91206 6.68137
6.43968 6.18791 5.92772 5.66137 5.39157 5.12115 4.85286 4.58903 4.33154
4.08163 3.83999 3.60675 3.38156 3.16368 2.95209 2.7456 2.54292 2.62677
2.83499 3.04568 3.25814 3.47129 3.68353 3.89273 4.09625 4.29116 4.47468
4.64471 4.80025 4.94148 5.06948 5.18585 9.50473 9.42947 9.34181 9.24195
9.13039 9.00785 8.87517 8.73315 8.58243 8.42339 8.25613 8.08045 7.89588
7.70177 7.49741 7.28213 7.05549 6.81737 6.5682 6.30904 6.04163 5.76829
5.49172 5.21475 4.94009 4.67005 4.40648 4.15063 3.9032 3.66435 3.43376
3.21074 2.9943 2.78324 2.57629 2.65969 2.86887 3.08027 3.29321 3.50656
3.71875 3.92767 4.13079 4.32533 4.50869 4.6789 4.83499 4.97707 5.10613
5.22364 9.68434 9.61374 9.52956 9.43204 9.32176 9.19958 9.06646 8.92328
8.77072 8.60914 8.43859 8.25876 8.06915 7.8691 7.65797 7.43526 7.20073
6.95451 6.69728 6.43031 6.15545 5.87507 5.59186 5.30856 5.02779 4.7518
4.48236 4.22071 3.96755 3.72304 3.48693 3.25856 3.03697 2.82101 2.60941
2.69193 2.90146 3.11288 3.32546 3.5381 3.74924 3.95688 4.15866 4.35205
4.53466 4.70473 4.86133 5.0045 5.13505 5.25424 9.86658 9.8009 9.72029
9.62504 9.51591 9.39398 9.26043 9.1163 8.96231 8.79876 8.62553 8.44212
8.24784 8.04193 7.82381 7.59314 7.34999 7.09488 6.82883 6.55341 6.27066
5.98299 5.69303 5.40343 5.11666 4.83484 4.55965 4.29226 4.03335 3.78313
3.54134 3.30739 3.08036 2.85916 2.64256 2.72379 2.93317 3.144 3.35556
3.56675 3.7761 3.98175 4.18153 4.3732 4.55466 4.72433 4.88135 5.02567
5.1579 5.27907 10.0501 9.98966 9.91266 9.81959 9.7115 9.58983 9.45611
9.3116 9.1571 8.99276 8.81814 8.63235 8.43432 8.22305 7.99792 7.75882
7.50624 7.24124 6.96535 6.68057 6.38918 6.09367 5.79662 5.50052 5.20763
4.91993 4.63894 4.36576 4.10102 3.84494 3.59729 3.35751 3.12477 2.898
2.67606 2.75567 2.96452 3.1743 3.38433 3.59357 3.80064 4.00385 4.20127
4.39091 4.57096 4.74002 4.89732 5.0427 5.17659 5.29981 10.233 10.1778
10.1044 10.0133 9.90615 9.78486 9.65149 9.50769 9.35431 9.19125 9.01752
8.83152 8.63148 8.41591 8.18406 7.93609 7.67309 7.39687 7.10976 6.81431
6.5132 6.20901 5.90423 5.60116 5.30183 5.00797 4.72095 4.44176 4.171
3.90883 3.65508 3.40922 3.17047 2.93784 2.71025 2.788 2.99604 3.20448
3.41267 3.61967 3.82422 4.0248 4.21969 4.40717 4.58567 4.75397 4.91135
5.05759 5.19298 5.3181 10.4118 10.362 10.2919 10.2025 10.096 9.97528
9.84315 9.70178 9.55212 9.39368 9.22455 9.04193 8.84282 8.62483 8.38689
8.12952 7.8547 7.56542 7.26513 6.95724 6.64491 6.33087 6.01748 5.70675
5.40041 5.09991 4.80644 4.52086 4.2437 3.97513 3.71498 3.46275 3.21771
2.97895 2.74545 2.82119 3.0283 3.23526 3.44148 3.64613 3.84809 4.046
4.23836 4.42367 4.60056 4.76798 4.92523 5.07208 5.20867 5.33543 10.5821
10.5372 10.4698 10.3814 10.2753 10.1553 10.0257 9.88923 9.7472 9.59845
9.43968 9.2661 9.07258 8.85515 8.61211 8.34451 8.05577 7.75072 7.43449
7.11177 6.78631 6.46099 6.13791 5.81867 5.50457 5.19675 4.89617 4.6036
4.31951 4.04409 3.77715 3.51824 3.26665 3.02152 2.7819 2.85558 3.06176
3.26723 3.47151 3.67385 3.87329 4.06862 4.25854 4.44173 4.617 4.78341
4.94034 5.0875 5.22495 5.35299 10.7374 10.6966 10.6308 10.5424 10.4358
10.3167 10.191 10.0629 9.93399 9.80233 9.66254 9.50661 9.3259 9.11357
8.86678 8.58745 8.28142 7.95651 7.6205 7.27979 6.93892 6.60074 6.26685
5.93821 5.61552 5.29949 4.9909 4.69047 4.39871 4.11582 3.84164 3.5757
3.3173 3.06561 2.81973 2.89138 3.09675 3.30086 3.50332 3.70351 3.90057
4.09348 4.28109 4.46224 4.63589 4.80121 4.9576 5.10479 5.24274 5.37166
10.8699 10.8314 10.7654 10.6751 10.5667 10.4483 10.3281 10.2124 10.1037
9.99938 9.89107 9.76576 9.6088 9.40834 9.15943 8.86555 8.53678 8.18594
7.82484 7.46225 7.10348 6.75101 6.40546 6.0667 5.73454 5.40922 5.09141
4.78193 4.48147 4.1903 3.90829 3.63494 3.36951 3.11113 2.85891 2.92862
3.13336 3.33633 3.5372 3.73545 3.93036 4.12104 4.30649 4.4857 4.65774
4.82186 4.97754 5.12447 5.26258 5.39198 10.9704 10.9315 10.8625 10.7675
10.655 10.5359 10.422 10.3227 10.2427 10.1792 10.1198 10.0442 9.92746
9.74893 9.49971 9.18618 8.82606 8.44049 8.04738 7.65848 7.27958 6.91205
6.55473 6.20562 5.86322 5.52724 5.19851 4.87831 4.56772 4.26724 3.97673
3.69558 3.42291 3.15776 2.89918 2.96711 3.17147 3.37354 3.57308 3.76966
3.96267 4.15133 4.33478 4.51214 4.68259 4.84546 5.00026 5.14669 5.28464
5.41417 11.0298 10.9867 10.9106 10.8069 10.6862 10.5632 10.4541 10.3736
10.3307 10.3237 10.3365 10.3374 10.2855 10.1437 9.89606 9.55431 9.14996
8.71786 8.28456 7.86514 7.46504 7.08331 6.71563 6.35694 6.00374 5.65526
5.3131 4.97973 4.65709 4.346 4.04622 3.75688 3.47685 3.20493 2.94008
3.0064 3.21061 3.41207 3.61056 3.80574 3.99708 4.18394 4.36557 4.5412
4.71011 4.8717 5.0255 5.17124 5.30877 5.43812 11.0406 10.9885 10.9002
10.7821 10.6468 10.5128 10.4024 10.3383 10.3373 10.4027 10.5152 10.6287
10.6762 10.5928 10.3487 9.96613 9.50065 9.00849 8.52737 8.07508 7.65527
7.26306 6.88916 6.52348 6.15922 5.79541 5.43592 5.08582 4.74858 4.42535
4.11555 3.81777 3.53037 3.25183 2.98087 3.04576 3.25006 3.45115 3.64886
3.84289 4.03282 4.21811 4.39811 4.57215 4.73961 4.89993 5.0527 5.19762
5.33455 5.46347 10.9994 10.9329 10.8266 10.6867 10.527 10.3696 10.2439
10.1839 10.2204 10.368 10.6076 10.8753 11.0662 11.0698 10.8333 10.3964
9.85375 9.29142 8.7593 8.27618 7.84233 7.4477 7.07599 6.70888 6.33365
5.94983 5.56681 5.19497 4.84008 4.50326 4.18295 3.87674 3.5822 3.29733
3.02058 3.08426 3.28881 3.48974 3.68688 3.88001 4.06878 4.25272 4.43131
4.60396 4.77011 4.92926 5.08102 5.22509 5.36132 5.48966 10.9084 10.8225
10.6922 10.5222 10.3256 10.1258 9.95882 9.87405 9.92576 10.1507 10.5356
10.9941 11.3709 11.4933 11.2752 10.7821 10.1611 9.53235 8.95641 8.45134
8.01393 7.62956 7.27391 6.91539 6.52966 6.11808 5.70252 5.30297 4.92771
4.57655 4.24593 3.93182 3.63075 3.34012 3.05807 3.12073 3.32566 3.52658
3.72334 3.91577 4.1036 4.28645 4.46388 4.63537 4.80043 4.95858 5.10945
5.25273 5.38826 5.51596 10.7756 10.6671 10.5086 10.3014 10.0543 9.78758
9.54035 9.37947 9.39653 9.67105 10.203 10.8706 11.4541 11.7161 11.5417
11.0239 10.3572 9.69035 9.09199 8.58057 8.15242 7.79216 7.4694 7.1338
6.73875 6.28949 5.83219 5.40108 5.0052 4.64088 4.3014 3.9807 3.67418
3.37866 3.09202 3.15388 3.35927 3.56027 3.75678 3.9487 4.13582 4.31785
4.49441 4.66505 4.8293 4.98671 5.13689 5.27955 5.41447 5.54156 10.6141
10.4827 10.2956 10.0488 9.74258 9.3867 9.01357 8.70326 8.60274 8.87531
9.54947 10.4323 11.2123 11.6112 11.5164 11.0394 10.3925 9.73619 9.1463
8.64609 8.23618 7.90528 7.6223 7.31872 6.91768 6.42942 5.93267 5.47541
5.06438 4.69121 4.34601 4.02095 3.71059 3.41137 3.12106 3.18238 3.38824
3.58937 3.78573 3.9773 4.16394 4.34544 4.52147 4.69162 4.85543 5.01244
5.16225 5.30451 5.43901 5.56561 10.4392 10.2886 10.0784 9.79857 9.43834
8.9898 8.46398 7.93662 7.62031 7.82922 8.65679 9.77015 10.7207 11.2275
11.2269 10.843 10.2733 9.6711 9.11629 8.63935 8.24721 7.9334 7.66926
7.38145 6.98164 6.48223 5.97478 5.51151 5.09768 4.7231 4.37677 4.05034
3.73817 3.43671 3.14385 3.2049 3.4112 3.61246 3.80874 4.0001 4.1865
4.3678 4.54369 4.71379 4.8776 5.03464 5.18445 5.32666 5.46099 5.5873
10.2654 10.1034 9.88205 9.5873 9.19963 8.69414 8.05429 7.33082 6.78063
6.9014 7.88408 9.19939 10.2486 10.7919 10.844 10.5438 10.0608 9.52669
9.01711 8.566 8.18386 7.86578 7.5854 7.28265 6.89263 6.42479 5.94721
5.50371 5.10174 4.73413 4.39172 4.06715 3.7554 3.45334 3.15921 3.22025
3.42691 3.62825 3.82447 4.01575 4.20217 4.38361 4.55982 4.73036 4.8947
5.05227 5.20254 5.34509 5.47958 5.60586 10.104 9.94056 9.72424 9.44155
9.07225 8.58799 7.96377 7.23715 6.66562 6.79264 7.81994 9.12492 10.0822
10.5254 10.5358 10.2572 9.82635 9.34483 8.87397 8.44387 8.06433 7.73024
7.41989 7.09427 6.7185 6.29759 5.86821 5.45912 5.07887 4.72458 4.39027
4.07048 3.76127 3.46025 3.16616 3.22745 3.4343 3.63563 3.83178 4.02309
4.20977 4.39176 4.56878 4.74033 4.90578 5.06445 5.21571 5.35904 5.49407
5.62061 9.96079 9.80581 9.61038 9.36682 9.06388 8.68786 8.23571 7.76438
7.4923 7.78432 8.68797 9.68324 10.3095 10.498 10.365 10.0376 9.61283
9.15703 8.71074 8.29454 7.91462 7.56594 7.23325 6.89455 6.53316 6.15103
5.76497 5.39067 5.03474 4.69668 4.37303 4.06016 3.75531 3.45685 3.16413
3.22583 3.43265 3.63376 3.82976 4.02118 4.20837 4.39133 4.56972 4.74291
4.91012 5.0705 5.2233 5.3679 5.50385 5.63096 9.83707 9.69732 9.53318
9.34567 9.13763 8.91767 8.71329 8.59966 8.72455 9.22175 9.96116 10.5487
10.7462 10.6123 10.2893 9.87596 9.42781 8.97723 8.54329 8.13545 7.75541
7.39848 7.05483 6.71263 6.36383 6.00881 5.65466 5.30885 4.97511 4.6533
4.34133 4.03672 3.73763 3.44308 3.15292 3.21514 3.42158 3.62219 3.81786
4.0094 4.19734 4.38171 4.56207 4.73758 4.90724 5.06998 5.22488 5.3712
5.50846 5.63643 9.73064 9.60846 9.47776 9.34797 9.23424 9.16172 9.17362
9.33858 9.73114 10.337 10.934 11.2075 11.0738 10.6902 10.217 9.73104
9.25804 8.80636 8.37921 7.97721 7.59853 7.23877 6.89171 6.55093 6.21235
5.8757 5.5437 5.21935 4.904 4.59705 4.29673 4.00113 3.70887 3.41937
3.13286 3.19559 3.40121 3.60089 3.79594 3.98754 4.17644 4.36269 4.54565
4.7242 4.89699 5.0627 5.22021 5.36867 5.50757 5.63666 9.63852 9.53204
9.42958 9.34623 9.30397 9.33351 9.47556 9.77475 10.2488 10.8193 11.2667
11.3597 11.0831 10.6052 10.0777 9.56678 9.0883 8.64117 8.22142 7.82534
7.44944 7.08995 6.74296 6.40502 6.07406 5.74974 5.43288 5.12425 4.82365
4.52979 4.24073 3.95459 3.67004 3.38662 3.10471 3.16792 3.37221 3.57046
3.76449 3.95601 4.14605 4.33464 4.52082 4.70305 4.87958 5.04878 5.2093
5.36022 5.50098 5.63139 9.55899 9.46402 9.38068 9.32655 9.32505 9.40423
9.59264 9.90822 10.3331 10.7773 11.0756 11.0838 10.804 10.3573 9.86076
9.3737 8.91365 8.48106 8.07211 7.68298 7.31055 6.95225 6.60597 6.27015
5.94401 5.62749 5.32075 5.02353 4.73477 4.45251 4.17441 3.89822 3.62233
3.34603 3.06971 3.13341 3.33593 3.53223 3.7248 3.91605 4.10736 4.29867
4.48859 4.67501 4.8557 5.02868 5.19243 5.34593 5.48865 5.62043 9.49274
9.40509 9.33204 9.29107 9.30382 9.39245 9.57265 9.84302 10.1705 10.4782
10.6588 10.6314 10.3981 10.0297 9.60345 9.16727 8.74125 8.33057 7.93497
7.55298 7.18336 6.82528 6.4783 6.14242 5.81795 5.50536 5.20484 4.91582
4.63677 4.36522 4.09821 3.83283 3.56682 3.29895 3.02934 3.09385 3.29445
3.48848 3.67926 3.87005 4.06268 4.25691 4.45079 4.64157 4.82646 5.00318
5.17006 5.32604 5.47062 5.60372 9.44252 9.35995 9.29159 9.25335 9.26377
9.33923 9.48633 9.69385 9.92688 10.1275 10.2293 10.1873 10.0011 9.7079
9.35389 8.97344 8.58543 8.1983 7.81552 7.43883 7.06952 6.70883 6.3581
6.01872 5.69217 5.37969 5.08196 4.79858 4.52786 4.26682 4.0117 3.7586
3.50424 3.24657 2.9852 3.05135 3.25049 3.44244 3.63144 3.8217 4.01552
4.21248 4.41003 4.60474 4.79335 4.9733 5.14283 5.30089 5.44703 5.58124
9.41175 9.3347 9.26975 9.23048 9.23201 9.28611 9.39435 9.54266 9.70057
9.82637 9.87845 9.83018 9.67917 9.44346 9.14855 8.81645 8.46208 8.09473
7.72068 7.34479 6.97112 6.60319 6.24405 5.89654 5.56331 5.24669 4.94825
4.66824 4.40503 4.15509 3.91351 3.67496 3.43474 3.18966 2.9386 3.00793
3.20693 3.39784 3.58566 3.7755 3.97016 4.1691 4.36928 4.56676 4.75794
4.94009 5.11141 5.27087 5.41806 5.55305 9.40292 9.33406 9.27474 9.23581
9.22891 9.2622 9.33487 9.43388 9.53516 9.60931 9.62943 9.57842 9.45251
9.25874 9.009 8.71486 8.38598 8.03096 7.6582 7.27579 6.89084 6.50918
6.13553 5.774 5.42845 5.10258 4.79944 4.52044 4.26435 4.0269 3.8015
3.58069 3.35785 3.12834 2.8902 2.9649 3.16592 3.35773 3.5457 3.73552
3.93044 4.13001 4.33106 4.52947 4.72152 4.90441 5.07634 5.2363 5.38391
5.51925 9.41653 9.35974 9.31004 9.27541 9.26403 9.28097 9.32447 9.3841
9.44242 9.47954 9.47807 9.42664 9.32068 9.16031 8.94722 8.68312 8.3712
8.01861 7.63647 7.23722 6.83174 6.42822 6.0327 5.65018 5.28557 4.94424
4.63139 4.35055 4.10144 3.87879 3.67335 3.47446 3.27285 3.06221 2.8398
2.92226 3.12787 3.32303 3.51294 3.70342 3.898 4.09664 4.2965 4.49369
4.68465 4.86665 5.03791 5.1974 5.34473 5.47995 9.45105 9.41043 9.3748
9.34916 9.33823 9.34438 9.36543 9.39393 9.41864 9.42755 9.41066 9.36127
9.2751 9.14755 8.97089 8.73482 8.43293 8.07049 7.6643 7.2344 6.79687
6.36214 5.93676 5.52574 5.13458 4.77037 4.44149 4.1551 3.91293 3.70836
3.52786 3.35587 3.17958 2.99091 2.78663 2.87879 3.09109 3.29178 3.4854
3.67736 3.87133 4.06782 4.26476 4.45889 4.64705 4.8267 4.9961 5.15423
5.30064 5.43533 9.50355 9.4831 9.46599 9.45413 9.44882 9.44971 9.45421
9.45762 9.45436 9.4396 9.41035 9.36521 9.30231 9.21476 9.08501 8.88448
8.58865 8.20017 7.74944 7.27112 6.78835 6.31283 5.85006 5.40373 4.97881
4.58387 4.23151 3.93479 3.69941 3.51701 3.36723 3.22724 3.07971 2.91508
2.73024 2.83291 3.05282 3.26021 3.45868 3.6529 3.84641 4.04031 4.23345
4.42343 4.60768 4.78396 4.95067 5.10677 5.25177 5.38559 9.57033 9.57415
9.58039 9.58776 9.59378 9.59496 9.58766 9.56937 9.53984 9.50147 9.45888
9.41766 9.38159 9.34601 9.2852 9.14171 8.8526 8.41554 7.89307 7.34634
6.80572 6.28148 5.77603 5.29011 4.8268 4.39519 4.01256 3.70044 3.47125
3.31465 3.20034 3.09556 2.97801 2.83735 2.67147 2.78395 3.0109 3.22481
3.42833 3.62523 3.81873 4.01031 4.19966 4.38528 4.56523 4.73771 4.90128
5.05497 5.19826 5.33101 9.64716 9.67977 9.71526 9.7489 9.77361 9.78135
9.76597 9.72627 9.66742 9.59991 9.53711 9.49311 9.48034 9.5026 9.53358
9.47942 9.20448 8.69523 8.07769 7.44974 6.84426 6.26748 5.71813 5.19328
4.69279 4.22478 3.81032 3.48029 3.25593 3.125 3.04538 2.97342 2.88248
2.76243 2.61274 2.73285 2.96497 3.18402 3.39183 3.59129 3.78514 3.97498
4.16111 4.34275 4.51861 4.68733 4.84771 4.9989 5.14038 5.27198 9.72885
9.79528 9.86742 9.93689 9.99063 10.0133 9.99311 9.92875 9.83183 9.72307
9.626 9.5632 9.55502 9.61482 9.72332 9.76155 9.51388 8.94871 8.25707
7.56129 6.89496 6.26729 5.67792 5.12119 4.59316 4.09957 3.66272 3.3195
3.09774 2.98396 2.92724 2.87643 2.80251 2.69593 2.55744 2.68184 2.91638
3.13839 3.349 3.55033 3.74452 3.9331 4.11667 4.29498 4.46727 4.63257
4.78998 4.93877 5.0785 5.20896 9.80842 9.91352 10.0307 10.1484 10.2457
10.2953 10.2742 10.1782 10.0281 9.85954 9.7082 9.60315 9.56677 9.61239
9.72069 9.77565 9.56695 9.05051 8.38088 7.66071 6.94515 6.27234 5.65195
5.07649 4.53803 4.03918 3.60014 3.25635 3.03462 2.92116 2.86529 2.8162
2.74502 2.64224 2.50856 2.63337 2.8673 3.08975 3.3013 3.50334 3.69746
3.88492 4.06641 4.24198 4.41125 4.5736 4.72836 4.87499 5.01309 5.14252
9.87621 10.0228 10.1923 10.3713 10.5303 10.6237 10.607 10.469 10.2453
9.99468 9.76818 9.59825 9.50226 9.48372 9.51717 9.51645 9.35447 8.98457
8.43104 7.72511 6.97151 6.26539 5.62948 5.05288 4.52357 4.04095 3.62039
3.28883 3.065 2.93578 2.85954 2.79337 2.71108 2.60272 2.46764 2.58921
2.8197 3.04019 3.25076 3.45217 3.64548 3.83163 4.01122 4.18444 4.35114
4.51094 4.6634 4.80811 4.94478 5.07328 9.91978 10.1059 10.3289 10.5768
10.8125 10.967 10.9615 10.7708 10.4538 10.1038 9.78934 9.54285 9.37282
9.27223 9.21527 9.15151 9.02254 8.78317 8.35322 7.68586 6.92754 6.22049
5.59466 5.03681 4.53327 4.08122 3.69019 3.37657 3.14963 2.99782 2.89117
2.79772 2.69581 2.57543 2.43433 2.5499 2.77477 2.99132 3.19921 3.39869
3.59032 3.77473 3.95236 4.12339 4.2878 4.44537 4.5958 4.73881 4.87421
5.00189 9.92543 10.1411 10.4069 10.7141 11.0224 11.2404 11.2492 11.004
10.5927 10.1472 9.75128 9.43403 9.19509 9.02052 8.88736 8.76592 8.62508
8.41925 8.05005 7.46024 6.77279 6.11903 5.5349 5.01429 4.5474 4.13146
3.77139 3.4752 3.24553 3.07278 2.93669 2.8151 2.6914 2.55645 2.40694
2.51496 2.73283 2.94406 3.14796 3.3444 3.53354 3.7157 3.89113 4.05997
4.22221 4.37772 4.52631 4.66781 4.80205 4.92901 9.88185 10.109 10.392
10.7244 11.0653 11.3126 11.3252 11.0465 10.5806 10.0799 9.63417 9.26929
8.98004 8.74985 8.55797 8.38177 8.19535 7.9574 7.60362 7.10674 6.53433
5.9698 5.44911 4.9773 4.55175 4.17164 3.8394 3.55809 3.32702 3.13855
2.97915 2.83387 2.69056 2.54157 2.38325 2.48327 2.69355 2.89868 3.09774
3.29032 3.47631 3.65573 3.82869 3.99522 4.1553 4.30884 4.45571 4.59578
4.72896 4.85523 9.78428 10.001 10.2681 10.5771 10.8869 11.1024 11.0977
10.8238 10.3724 9.88026 9.431 9.05056 8.73512 8.46994 8.23696 8.01661
7.78622 7.5159 7.17319 6.74959 6.27713 5.80006 5.34588 4.92499 4.54018
4.19277 3.88431 3.61563 3.38484 3.18608 3.01022 2.84718 2.68827 2.52741
2.3612 2.45358 2.6563 2.85505 3.04884 3.23706 3.4194 3.59571 3.76593
3.93001 4.08788 4.23946 4.38465 4.52336 4.65551 4.7811 8.03064 7.92046
7.80024 7.66888 7.52491 7.36663 7.19324 7.00926 6.83362 6.69431 6.58923
6.48814 6.37274 6.23993 6.09161 5.93014 5.75746 5.57511 5.38444 5.18683
4.98376 4.77681 4.56768 4.35805 4.1495 3.94338 3.74073 3.54223 3.34815
3.15839 2.97256 2.79002 2.61002 2.43177 2.25453 2.32948 2.51308 2.69713
2.88106 3.0642 3.24569 3.42456 3.59972 3.77 3.93429 4.09161 4.24122
4.38269 4.51588 4.64093 8.17453 8.0661 7.94743 7.81752 7.67515 7.519
7.34892 7.16985 6.99872 6.85835 6.74683 6.63923 6.51906 6.3826 6.23097
6.06602 5.88936 5.70232 5.50618 5.30228 5.0922 4.87769 4.66067 4.4431
4.22681 4.01339 3.80408 3.59966 3.40045 3.20636 3.01692 2.8314 2.64893
2.46859 2.28949 2.36674 2.55474 2.74363 2.93279 3.12147 3.30867 3.49324
3.67381 3.84895 4.01727 4.17756 4.32901 4.4712 4.60413 4.72812 8.32369
8.2178 8.10172 7.9748 7.83634 7.686 7.5249 7.35819 7.19758 7.05562
6.93092 6.80922 6.67888 6.53554 6.37876 6.20929 6.02802 5.83588 5.6339
5.42337 5.20587 4.98336 4.75798 4.53196 4.30744 4.08626 3.86983 3.65908
3.45439 3.25565 3.06234 2.87363 2.68853 2.50597 2.32496 2.40454 2.59707
2.79098 2.98563 3.18019 3.37352 3.56422 3.75064 3.93096 4.10345 4.26666
4.41965 4.56209 4.69417 4.8165 8.47804 8.37533 8.26261 8.13958 8.00615
7.86277 7.71126 7.55587 7.40342 7.25969 7.12379 6.98874 6.84753 6.69625
6.53346 6.35885 6.17257 5.97504 5.76697 5.54951 5.32431 5.09344 4.85931
4.62446 4.39132 4.16198 3.93806 3.72063 3.51012 3.30641 3.10894 2.91678
2.72883 2.5439 2.36085 2.44273 2.63981 2.83882 3.03911 3.23977 3.43952
3.6367 3.8293 4.01505 4.19178 4.35775 4.51193 4.65409 4.78473 4.90482
8.63747 8.53839 8.42943 8.31058 8.18215 8.045 7.90095 7.75303 7.60499
7.45946 7.31592 7.171 7.02068 6.86198 6.69314 6.5132 6.32171 6.1186
5.90427 5.67971 5.44659 5.20715 4.96404 4.72012 4.47811 4.24036 4.0087
3.7843 3.56767 3.3587 3.15676 2.96086 2.7698 2.58227 2.397 2.48106
2.6826 2.88663 3.09253 3.2993 3.50555 3.70934 3.90825 4.09951 4.28044
4.44893 4.60388 4.74526 4.87395 4.99134 8.80186 8.7067 8.60162 8.4868
8.36273 8.23039 8.09132 7.94759 7.80136 7.65395 7.50511 7.35313 7.19563
7.03046 6.85588 6.67064 6.47383 6.265 6.04429 5.81254 5.57142 5.32334
5.07121 4.81817 4.56724 4.32101 4.08149 3.84996 3.62698 3.41247 3.20577
3.00583 2.81135 2.62094 2.4332 2.51922 2.72496 2.93375 3.14497 3.35758
3.57007 3.78025 3.98527 4.18183 4.36669 4.53738 4.69273 4.83297 4.95942
5.07393 8.97118 8.88012 8.77889 8.66773 8.54722 8.41828 8.28219 8.14044
7.99441 7.84492 7.6919 7.53444 7.37105 7.20011 7.02005 6.82945 6.62717
6.41247 6.18525 5.94626 5.69718 5.44056 5.17957 4.91759 4.65791 4.40333
4.156 3.9173 3.68786 3.4676 3.25586 3.05157 2.85335 2.65974 2.46923
2.55686 2.76638 2.97943 3.19539 3.41321 3.63124 3.84709 4.05753 4.25877
4.44705 4.61953 4.77503 4.91405 5.03835 5.15022 9.14552 9.05871 8.96122
8.85332 8.73559 8.6089 8.47435 8.3331 8.1862 8.03429 7.87744 7.71515
7.54642 7.36998 7.18438 6.9882 6.78012 6.55926 6.32535 6.07909 5.82217
5.55729 5.28779 5.01729 4.74925 4.48665 4.23173 3.98598 3.75005 3.52391
3.30691 3.09796 2.89566 2.69848 2.50484 2.59365 2.80637 3.02296 3.24278
3.46476 3.68717 3.90744 4.12208 4.3269 4.51777 4.6916 4.84719 4.9853
5.10802 5.21798 9.32504 9.24263 9.14879 9.0438 8.92822 8.80288 8.6688
8.52702 8.37845 8.22369 8.06293 7.89587 7.72182 7.53969 7.3482 7.14591
6.93151 6.70401 6.46313 6.20953 5.94496 5.67219 5.39471 5.11628 4.84047
4.57034 4.30823 4.05565 3.81332 3.58124 3.35879 3.14491 2.93819 2.73706
2.53988 2.62934 2.84454 3.06376 3.28633 3.51113 3.73637 3.95936 4.17648
4.38339 4.57579 4.75051 4.90636 5.04422 5.16635 5.27553 9.50995 9.43215
9.34194 9.23956 9.12561 9.00092 8.86653 8.72344 8.57257 8.41453 8.24956
8.07751 7.89782 7.70955 7.51151 7.30238 7.08089 6.84613 6.59784 6.33675
6.06468 5.78446 5.49961 5.21393 4.93104 4.65401 4.38519 4.12611 3.87753
3.63951 3.41148 3.19241 2.98093 2.77545 2.57429 2.66382 2.88071 3.10154
3.32561 3.55173 3.77805 4.00187 4.21958 4.42692 4.6197 4.79486 4.95125
5.0897 5.21243 5.32216 9.70045 9.62754 9.54098 9.441 9.32825 9.20367
9.06835 8.92341 8.76977 8.60809 8.43865 8.26131 8.07556 7.88056 7.67522
7.45836 7.22888 6.98604 6.72978 6.46094 6.18142 5.89408 5.60242 5.31018
5.0209 4.73759 4.46256 4.19734 3.94272 3.6988 3.46508 3.2406 3.02402
2.81377 2.60818 2.69718 2.91492 3.13634 3.36067 3.58665 3.8124 4.03527
4.25182 4.45808 4.65021 4.82541 4.98257 5.12238 5.2468 5.35829 9.8966
9.82894 9.7461 9.64834 9.53644 9.41151 9.27484 9.12768 8.97105 8.80562
8.63163 8.44887 8.2568 8.05457 7.8412 7.6157 7.37723 7.12539 6.8604
6.58335 6.29625 6.00195 5.70386 5.40558 5.11046 4.8214 4.54062 4.26959
4.00912 3.75935 3.51985 3.28972 3.0677 2.85227 2.64177 2.72967 2.9475
3.16857 3.39204 3.61662 3.84045 4.06098 4.27505 4.47912 4.66983 4.84472
5.00275 5.14439 5.27123 5.38537 10.0982 10.0361 9.95713 9.86144 9.75005
9.6244 9.4861 9.33663 9.17715 9.00827 8.8301 8.64223 8.44393 8.23426
8.0123 7.77731 7.52883 7.26693 6.99228 6.70629 6.41118 6.10977 5.80535
5.50126 5.20064 4.90618 4.61994 4.34334 4.07714 3.82153 3.57614 3.34014
3.11235 2.89132 2.67545 2.76171 2.97898 3.1989 3.42063 3.64287 3.86381
4.0811 4.29189 4.49313 4.68195 4.85625 5.01508 5.15868 5.28826 5.4055
10.3043 10.2484 10.1733 10.0795 9.96824 9.84157 9.70155 9.55005 9.38835
9.21699 9.03576 8.84382 8.64003 8.42319 8.19238 7.94713 7.68755 7.41433
7.12878 6.83281 6.52887 6.21983 5.90878 5.59879 5.2927 4.99292 4.70132
4.41921 4.14731 3.8858 3.63437 3.39226 3.15836 2.93132 2.70964 2.79385
3.01004 3.22822 3.44758 3.66686 3.88438 4.09797 4.30515 4.5033 4.69002
4.86353 5.02297 5.16839 5.30064 5.42102 10.5135 10.4641 10.3929 10.3005
10.189 10.0611 9.9195 9.76673 9.60425 9.43237 9.25032 9.05647 8.84889
8.62585 8.38628 8.13008 7.85808 7.57191 7.2738 6.96633 6.65232 6.33469
6.01633 5.69998 5.38811 5.0828 4.7857 4.49795 4.22021 3.95264 3.69495
3.44645 3.20613 2.97272 2.74484 2.82667 3.04144 3.25752 3.47415 3.69017
3.90404 4.11384 4.31739 4.51245 4.69703 4.86961 5.02939 5.17631 5.31092
5.43419 10.7227 10.68 10.6124 10.521 10.4087 10.2792 10.1366 9.98403
9.82331 9.65436 9.47542 9.2835 9.07526 8.84791 8.60008 8.33209 8.04588
7.74448 7.43143 7.11032 6.78446 6.45686 6.13015 5.80665 5.48839 5.17706
4.87403 4.58029 4.29638 4.02245 3.75822 3.50305 3.25599 3.01588 2.78147
2.86076 3.07397 3.28779 3.50157 3.71427 3.92453 4.13065 4.33073 4.52285
4.70533 4.87685 5.03671 5.18472 5.32124 5.44696 10.927 10.891 10.8265
10.7351 10.6211 10.4898 10.3471 10.1972 10.0423 9.88184 9.71245 9.52882
9.32513 9.09672 8.84146 8.56038 8.25717 7.93709 7.6057 7.26798 6.92794
6.5886 6.25222 5.92056 5.59505 5.27694 4.96729 4.66692 4.37631 4.09557
3.82443 3.56226 3.30818 3.06111 2.81992 2.89663 3.10833 3.31995 3.53095
3.74047 3.94731 4.14998 4.34683 4.5362 4.71663 4.887 5.04664 5.19531
5.33322 5.46085 11.1191 11.0892 11.0266 10.9338 10.8169 10.6836 10.542
10.3983 10.2555 10.1121 9.9623 9.79712 9.60641 9.38202 9.12046 8.82389
8.49908 8.15496 7.80026 7.44194 7.0848 6.73172 6.38427 6.04333 5.70956
5.38366 5.0664 4.75849 4.46038 4.1722 3.89366 3.62414 3.36277 3.10855
2.86042 2.93464 3.14503 3.35468 3.56316 3.76976 3.97346 4.17297 4.36685
4.55364 4.73209 4.90118 5.06031 5.20923 5.348 5.47696 11.2887 11.2633
11.2007 11.1046 10.983 10.8472 10.7084 10.5757 10.4535 10.3395 10.2248
10.094 9.92965 9.71719 9.45047 9.1338 8.77955 8.40302 8.01787 7.63377
7.25621 6.88745 6.52775 6.17658 5.8335 5.49856 5.17232 4.85555 4.54883
4.25234 3.96581 3.68855 3.41968 3.15818 2.90304 2.97495 3.18436 3.39238
3.59869 3.80273 4.00363 4.20028 4.39142 4.57579 4.75226 4.91997 5.07833
5.22707 5.36621 5.49594 11.4232 11.3996 11.334 11.2313 11.1027 10.9631
10.8285 10.7121 10.6214 10.5541 10.4969 10.4253 10.3087 10.1204 9.84922
9.50363 9.1067 8.68489 8.2594 7.84323 7.442 7.05627 6.68394 6.32215
5.9688 5.62324 5.2861 4.9586 4.64171 4.33579 4.04053 3.75513 3.47856
3.20971 2.94756 3.01743 3.22625 3.43305 3.6376 3.83946 4.0379 4.23198
4.4206 4.60268 4.77721 4.94341 5.10076 5.24898 5.38802 5.518 11.5086
11.4823 11.4095 11.2962 11.1565 11.0102 10.8794 10.7837 10.7362 10.7373
10.7694 10.7944 10.7595 10.6149 10.3384 9.9476 9.48634 9.00044 8.52202
8.06715 7.64005 7.23784 6.85425 6.4826 6.11825 5.75989 5.40896 5.06795
4.73872 4.42193 4.11711 3.82317 3.53876 3.26258 2.9935 3.0616 3.27022
3.47621 3.67942 3.87948 4.0758 4.26759 4.45391 4.63382 4.80644 4.97107
5.12723 5.27463 5.4132 5.543 11.5326 11.4978 11.4121 11.2824 11.1256
10.9664 10.8341 10.7585 10.7631 10.8559 11.0178 11.1934 11.2933 11.2231
10.9378 10.4737 9.91553 9.34122 8.79629 8.29774 7.84549 7.43068 7.04049
6.66191 6.28616 5.91156 5.54218 5.18347 4.83897 4.50957 4.19435 3.89155
3.59928 3.3159 3.04006 3.10664 3.3154 3.52096 3.72318 3.92179 4.11631
4.30609 4.49033 4.66823 4.83902 5.00207 5.15694 5.30334 5.44117 5.57044